Siesta Version:                                        siesta-3.2
Architecture  : x86_64-unknown-linux-gnu--unknown
Compiler flags: f95 -g -O2
SERIAL version

* Running in serial mode
Siesta Version:                                        siesta-3.2
Architecture  : x86_64-unknown-linux-gnu--unknown
Compiler flags: f95 -g -O2
SERIAL version

* Running in serial mode
>> Start of run:   9-MAY-2013  17:15:03
>> Start of run:   9-MAY-2013  17:15:03

                           ***********************       
                           *  WELCOME TO SIESTA  *       
                           ***********************       

reinit: Reading from standard input
************************** Dump of input data file ****************************
# FDF for silicon
SystemName             silicon          # Descriptive name of the system
SystemLabel            si          # Short name for naming files
NumberOfAtoms 8
NumberOfSpecies 1
%block ChemicalSpeciesLabel
1 14 Si
%endblock ChemicalSpeciesLabel
LatticeConstant  5.80 Ang
##Basis set Definition##
PAO.BasisType          split        # Type of PAO basis set
PAO.EnergyShift        50 meV
PAO.BasisSize          DZP          # (DZP) Double-z + polarization
#%block LatticeVectors
#0.500 0.500 0.000
#0.500 0.000 0.500
#0.000 0.500 0.500
#%endblock LatticeVectors
AtomicCoordinatesFormat NotScaledCartesianAng
%block AtomicCoordinatesAndAtomicSpecies
	0.00000000	0.00000000	0.00000000  1 Si  1
	1.36000000	1.36000000	1.36000000  1 Si  2
	2.72000000	2.72000000	0.00000000  1 Si  3
	4.08000000	4.08000000	1.36000000  1 Si  4
	2.72000000	0.00000000	2.72000000  1 Si  5
	4.08000000	1.36000000	4.08000000  1 Si  6
	0.00000000	2.72000000	2.72000000  1 Si  7
	1.36000000	4.08000000	4.08000000  1 Si  8
%endblock AtomicCoordinatesAndAtomicSpecies
MeshCutoff 100.0 Ry # 100, 120, 180, 260
kgrid_cutoff 30.0 Bohr # 30, 35, 40, 45
DM.Mixingweight  0.3
DM.NumberPulay    3
DM.Tolerance      1.d-3
DM.UseSaveDM      true
ElectronicTemperature 25 meV
SolutionMethod    diagon
XC.functional     LDA	    # Local Density Approximation
XC.authors        CA           # Ceperley-Alder
SpinPolarized     false
MD.TypeOfRun           CG           # Type of dynamics:
MD.VariableCell        true
MD.NumCGsteps          100          # Number of CG steps for coordinate optimization
MD.MaxCGDispl          0.2 Bohr     # Maximum atomic displacement
                                    #   in one CG step (Bohr)
MD.MaxForceTol         0.04 eV/Ang  # Tolerance in the maximum
                                    #   atomic force (Ry/Bohr)
				
##Output Specification##
WriteMDhistory         true         # Trajectory information
WriteCoorStep          true
WriteCoorXmol          true
WriteMDXmol            true
WriteEigenvalues true
WriteKbands      true
WriteBands       true
WriteWaveFunctions true
WriteMullikenPoP   1
%block BandLines
1	1.000	1.000 1.000 L
25	0.000	0.000	0.000 \Gamma
30	2.000	0.000	0.000 X
10	2.000	0.500	0.500 U
35	0.000	0.000	0.000 \Gamma
%endblock BandLines
%block WaveFuncKPoints
0.0 0.0 0.0 from 1 to 50 # > 16 = 4/2*8 (Valenzelektronen/2, Atomzahl ...)
%endblock WaveFuncKpoints
************************** End of input data file *****************************

reinit: -----------------------------------------------------------------------
reinit: System Name: silicon
reinit: -----------------------------------------------------------------------
reinit: System Label: si                                                          
reinit: -----------------------------------------------------------------------

initatom: Reading input for the pseudopotentials and atomic orbitals ----------

                           ***********************       
                           *  WELCOME TO SIESTA  *       
                           ***********************       

reinit: Reading from standard input
************************** Dump of input data file ****************************
************************** End of input data file *****************************

reinit: -----------------------------------------------------------------------
reinit: System Name: 
reinit: -----------------------------------------------------------------------
reinit: System Label: siesta                                                      
reinit: -----------------------------------------------------------------------

initatom: Reading input for the pseudopotentials and atomic orbitals ----------
No species found!!!
ERROR STOP from Node:    0
 Species number:            1  Label: Si Atomic number:          14
Ground state valence configuration:   3s02  3p02
Reading pseudopotential information in formatted form from Si.psf

Valence configuration for pseudopotential generation:
3s( 2.00) rc: 1.75
3p( 2.00) rc: 1.94
3d( 0.00) rc: 2.09
4f( 0.00) rc: 2.09
For Si, standard SIESTA heuristics set lmxkb to 3
 (one more than the basis l, including polarization orbitals).
Use PS.lmax or PS.KBprojectors blocks to override.

<basis_specs>
===============================================================================
Si                   Z=  14    Mass=  28.090        Charge= 0.17977+309
Lmxo=1 Lmxkb= 3    BasisType=split      Semic=F
L=0  Nsemic=0  Cnfigmx=3
          n=1  nzeta=2  polorb=0
            splnorm:   0.15000    
               vcte:    0.0000    
               rinn:    0.0000    
                rcs:    0.0000      0.0000    
            lambdas:    1.0000      1.0000    
L=1  Nsemic=0  Cnfigmx=3
          n=1  nzeta=2  polorb=1
            splnorm:   0.15000    
               vcte:    0.0000    
               rinn:    0.0000    
                rcs:    0.0000      0.0000    
            lambdas:    1.0000      1.0000    
-------------------------------------------------------------------------------
L=0  Nkbl=1  erefs: 0.17977+309
L=1  Nkbl=1  erefs: 0.17977+309
L=2  Nkbl=1  erefs: 0.17977+309
L=3  Nkbl=1  erefs: 0.17977+309
===============================================================================
</basis_specs>

atom: Called for Si                    (Z =  14)

read_vps: Pseudopotential generation method:
read_vps: ATM3      Troullier-Martins                       
Total valence charge:    4.00000

xc_check: Exchange-correlation functional:
xc_check: Ceperley-Alder
V l=0 = -2*Zval/r beyond r=  2.5494
V l=1 = -2*Zval/r beyond r=  2.5494
V l=2 = -2*Zval/r beyond r=  2.5494
V l=3 = -2*Zval/r beyond r=  2.5494
All V_l potentials equal beyond r=  2.0613
This should be close to max(r_c) in ps generation
All pots = -2*Zval/r beyond r=  2.5494

VLOCAL1: 99.0% of the norm of Vloc inside     10.216 Ry
VLOCAL1: 99.9% of the norm of Vloc inside     23.282 Ry
atom: Maximum radius for 4*pi*r*r*local-pseudopot. charge    2.45560
atom: Maximum radius for r*vlocal+2*Zval:    2.14012
GHOST: No ghost state for L =  0
GHOST: No ghost state for L =  1
GHOST: No ghost state for L =  2
GHOST: No ghost state for L =  3

KBgen: Kleinman-Bylander projectors: 
   l= 0   rc=  2.782581   el= -0.796617   Ekb=  4.840502   kbcos=  0.288423
   l= 1   rc=  2.888916   el= -0.307040   Ekb=  1.512733   kbcos=  0.296968
   l= 2   rc=  2.962054   el=  0.002313   Ekb= -2.156507   kbcos= -0.061834
   l= 3   rc=  3.192765   el=  0.003402   Ekb= -0.600958   kbcos= -0.007408

KBgen: Total number of  Kleinman-Bylander projectors:   16
atom: -------------------------------------------------------------------------

atom: SANKEY-TYPE ORBITALS:
atom: Selected multiple-zeta basis: split     

SPLIT: Orbitals with angular momentum L= 0

SPLIT: Basis orbitals for state 3s

SPLIT: PAO cut-off radius determined from an
SPLIT: energy shift=  0.003675 Ry

   izeta = 1
                 lambda =    1.000000
                     rc =    6.116033
                 energy =   -0.793486
                kinetic =    0.528761
    potential(screened) =   -1.322246
       potential(ionic) =   -3.766038

   izeta = 2
                 rmatch =    4.530823
              splitnorm =    0.150000
                 energy =   -0.697320
                kinetic =    0.853435
    potential(screened) =   -1.550756
       potential(ionic) =   -4.120809

SPLIT: Orbitals with angular momentum L= 1

SPLIT: Basis orbitals for state 3p

SPLIT: PAO cut-off radius determined from an
SPLIT: energy shift=  0.003675 Ry

   izeta = 1
                 lambda =    1.000000
                     rc =    7.853192
                 energy =   -0.303674
                kinetic =    0.798475
    potential(screened) =   -1.102149
       potential(ionic) =   -3.307324

   izeta = 2
                 rmatch =    5.397360
              splitnorm =    0.150000
                 energy =   -0.229357
                kinetic =    1.170483
    potential(screened) =   -1.399841
       potential(ionic) =   -3.814095

POLgen: Perturbative polarization orbital with L=  2

POLgen: Polarization orbital for state 3p

   izeta = 1
                     rc =    7.853192
                 energy =    0.331669
                kinetic =    1.088595
    potential(screened) =   -0.756926
       potential(ionic) =   -2.714870
atom: Total number of Sankey-type orbitals: 13

atm_pop: Valence configuration (for local Pseudopot. screening):
 3s( 2.00)                                                            
 3p( 2.00)                                                            
Vna: chval, zval:    4.00000   4.00000

Vna:  Cut-off radius for the neutral-atom potential:   7.853192

atom: _________________________________________________________________________

prinput: Basis input ----------------------------------------------------------

PAO.BasisType split     

%block ChemicalSpeciesLabel
    1   14 Si                      # Species index, atomic number, species label
%endblock ChemicalSpeciesLabel

%block PAO.Basis                 # Define Basis set
Si                    2                    # Species label, number of l-shells
 n=3   0   2                         # n, l, Nzeta 
   6.116      4.531   
   1.000      1.000   
 n=3   1   2 P   1                   # n, l, Nzeta, Polarization, NzetaPol
   7.853      5.397   
   1.000      1.000   
%endblock PAO.Basis

prinput: ----------------------------------------------------------------------

coor:   Atomic-coordinates input format  =     Cartesian coordinates
coor:                                          (in Angstroms)

siesta: Atomic coordinates (Bohr) and species
siesta:      0.00000   0.00000   0.00000  1        1
siesta:      2.57003   2.57003   2.57003  1        2
siesta:      5.14006   5.14006   0.00000  1        3
siesta:      7.71009   7.71009   2.57003  1        4
siesta:      5.14006   0.00000   5.14006  1        5
siesta:      7.71009   2.57003   7.71009  1        6
siesta:      0.00000   5.14006   5.14006  1        7
siesta:      2.57003   7.71009   7.71009  1        8

siesta: System type = bulk      

initatomlists: Number of atoms, orbitals, and projectors:      8   104   128

siesta: ******************** Simulation parameters ****************************
siesta:
siesta: The following are some of the parameters of the simulation.
siesta: A complete list of the parameters used, including default values,
siesta: can be found in file out.fdf
siesta:
redata: Non-Collinear-spin run           =     F
redata: SpinPolarized (Up/Down) run      =     F
redata: Number of spin components        =     1
redata: Long output                      =     F
redata: Number of Atomic Species         =        1
redata: Charge density info will appear in .RHO file
redata: Write Mulliken Pop.              =     Atomic and Orbital charges
redata: Mesh Cutoff                      =   100.0000  Ry
redata: Net charge of the system         =     0.0000 |e|
redata: Max. number of SCF Iter          =       50
redata: Performing Pulay mixing using    =     3 iterations
redata: Mix DM in first SCF step ?       =     F
redata: Write Pulay info on disk?        =     F
redata: Discard 1st Pulay DM after  kick =     F
redata: New DM Mixing Weight             =     0.3000
redata: New DM Occupancy tolerance       = 0.000000000001
redata: No kicks to SCF
redata: DM Mixing Weight for Kicks       =     0.5000
redata: DM Tolerance for SCF             =     0.001000
redata: Require Energy convergence for SCF =     F
redata: DM Energy tolerance for SCF      =     0.000100 eV
redata: Require Harris convergence for SCF =     F
redata: DM Harris energy tolerance for SCF =     0.000100 eV
redata: Using Saved Data (generic)   =     F
redata: Use continuation files for DM    =     T
redata: Neglect nonoverlap interactions  =     F
redata: Method of Calculation            =     Diagonalization
redata: Divide and Conquer               =     T
redata: Electronic Temperature           =     0.0018  Ry
redata: Fix the spin of the system       =     F
redata: Dynamics option                  =     CG coord. optimization
redata: Variable cell                    =     T
redata: Use continuation files for CG    =     F
redata: Max atomic displ per move        =     0.2000  Bohr
redata: Maximum number of CG moves       =      100
redata: Force tolerance                  =     0.0016  Ry/Bohr
redata: Stress tolerance                 =     1.0000  GPa
redata: ***********************************************************************
Total number of electrons:    32.000000
Total ionic charge:    32.000000
 Kpoints in:          108 . Kpoints trimmed:          108

siesta: k-grid: Number of k-points =   108
siesta: k-grid: Cutoff (effective) =    17.400 Ang
siesta: k-grid: Supercell and displacements
siesta: k-grid:    0   6   0      0.500
siesta: k-grid:    0   0   6      0.500
siesta: k-grid:    6   0   0      0.500
Naive supercell factors:     5    5    5

superc: Internal auxiliary supercell:     5 x     5 x     5  =     125
superc: Number of atoms, orbitals, and projectors:   1000  13000  16000

* Maximum dynamic memory allocated =     1 MB

siesta:                 ==============================
                            Begin CG move =      0
                        ==============================

outcoor: Atomic coordinates (Ang):                          
    0.00000000    0.00000000    0.00000000   1       1  Si
    1.36000000    1.36000000    1.36000000   1       2  Si
    2.72000000    2.72000000    0.00000000   1       3  Si
    4.08000000    4.08000000    1.36000000   1       4  Si
    2.72000000    0.00000000    2.72000000   1       5  Si
    4.08000000    1.36000000    4.08000000   1       6  Si
    0.00000000    2.72000000    2.72000000   1       7  Si
    1.36000000    4.08000000    4.08000000   1       8  Si

superc: Internal auxiliary supercell:     5 x     5 x     5  =     125
superc: Number of atoms, orbitals, and projectors:   1000  13000  16000

outcell: Unit cell vectors (Ang):
        5.800000    0.000000    0.000000
        0.000000    5.800000    0.000000
        0.000000    0.000000    5.800000

outcell: Cell vector modules (Ang)   :    5.800000    5.800000    5.800000
outcell: Cell angles (23,13,12) (deg):     90.0000     90.0000     90.0000
outcell: Cell volume (Ang**3)        :    195.1120
New_DM. Step:     1
Initializing Density Matrix...

InitMesh: MESH =    36 x    36 x    36 =       46656
InitMesh: Mesh cutoff (required, used) =   100.000   106.476 Ry

* Maximum dynamic memory allocated =    67 MB

stepf: Fermi-Dirac step function

siesta: Program's energy decomposition (eV):
siesta: Ebs     =      -329.486033
siesta: Eions   =      1510.441798
siesta: Ena     =       475.063397
siesta: Ekin    =       288.938730
siesta: Enl     =       129.758968
siesta: DEna    =         0.000001
siesta: DUscf   =         0.000000
siesta: DUext   =         0.000000
siesta: Exc     =      -246.604967
siesta: eta*DQ  =         0.000000
siesta: Emadel  =         0.000000
siesta: Emeta   =         0.000000
siesta: Emolmec =         0.000000
siesta: Ekinion =         0.000000
siesta: Eharris =      -859.284050
siesta: Etot    =      -863.285669
siesta: FreeEng =      -863.285669

siesta: iscf   Eharris(eV)      E_KS(eV)   FreeEng(eV)   dDmax  Ef(eV)
siesta:    1     -859.2841     -863.2857     -863.2857  1.8417 -5.3076
timer: Routine,Calls,Time,% = IterSCF        1      15.901  96.69
elaps: Routine,Calls,Wall,% = IterSCF        1      15.958  96.70
siesta:    2     -859.0453     -858.9268     -858.9290  0.0829 -5.1503
siesta:    3     -859.0003     -859.0857     -859.0878  0.0309 -5.1716
siesta:    4     -858.9956     -859.0078     -859.0100  0.0092 -5.1737
siesta:    5     -858.9950     -858.9926     -858.9947  0.0036 -5.1793
siesta:    6     -858.9949     -858.9934     -858.9955  0.0025 -5.1811
siesta:    7     -858.9949     -858.9946     -858.9968  0.0012 -5.1823
siesta:    8     -858.9949     -858.9951     -858.9972  0.0004 -5.1821

siesta: E_KS(eV) =             -858.9951

siesta: E_KS - E_eggbox =      -858.9951

siesta: Atomic forces (eV/Ang):
----------------------------------------
   Tot   -0.001932   -0.001934   -0.001944
----------------------------------------
   Max    2.037664
   Res    1.239446    sqrt( Sum f_i^2 / 3N )
----------------------------------------
   Max    2.037664    constrained

Stress-tensor-Voigt (kbar):       96.88       96.88       96.88      -11.62      -11.62      -11.62
(Free)E + p*V (eV/cell)     -870.7953
Target enthalpy (eV/cell)     -858.9972

siesta: Stress tensor (static) (eV/Ang**3):
         0.060468   -0.007254   -0.007254
        -0.007254    0.060468   -0.007254
        -0.007254   -0.007254    0.060468

siesta: Pressure (static):        -96.88165148  kBar

siesta: Stress tensor (total) (eV/Ang**3):
         0.060468   -0.007254   -0.007254
        -0.007254    0.060468   -0.007254
        -0.007254   -0.007254    0.060468

siesta: Pressure (total):        -96.88165148  kBar

mulliken: Mulliken Atomic and Orbital Populations:

Species: Si                  
Atom  Qatom  Qorb
               3s      3s      3py     3pz     3px     3py     3pz     3px     
               3Pdxy   3Pdyz   3Pdz2   3Pdxz   3Pdx2-y2
   1  4.087   0.971   0.429   0.494   0.494   0.494   0.295   0.295   0.295
              0.079   0.079   0.042   0.079   0.042
   2  3.964   0.543   0.628   0.227   0.227   0.227   0.524   0.524   0.524
              0.127   0.127   0.080   0.127   0.080
   3  3.969   0.677   0.565   0.338   0.272   0.338   0.427   0.471   0.427
              0.102   0.111   0.076   0.111   0.056
   4  4.014   0.824   0.497   0.373   0.453   0.373   0.391   0.327   0.391
              0.099   0.090   0.047   0.090   0.058
   5  3.969   0.677   0.565   0.272   0.338   0.338   0.471   0.427   0.427
              0.111   0.111   0.061   0.102   0.071
   6  4.014   0.824   0.497   0.453   0.373   0.373   0.327   0.391   0.391
              0.090   0.090   0.055   0.099   0.050
   7  3.969   0.677   0.565   0.338   0.338   0.272   0.427   0.427   0.471
              0.111   0.102   0.061   0.111   0.071
   8  4.014   0.824   0.497   0.373   0.373   0.453   0.391   0.391   0.327
              0.090   0.099   0.055   0.090   0.050

mulliken: Qtot =       32.000

cgvc: No target stress found, assuming hydrostatic MD.TargetPressure.

cgvc: Target stress (kBar)
cgvc:        -0.000       0.000       0.000
cgvc:         0.000      -0.000       0.000
cgvc:         0.000       0.000      -0.000

* Maximum dynamic memory allocated =    69 MB

siesta:                 ==============================
                            Begin CG move =      1
                        ==============================

outcoor: Atomic coordinates (Ang):                          
   -0.02373506   -0.02373504   -0.02373501   1       1  Si
    1.34984837    1.34984838    1.34984839   1       2  Si
    2.70652114    2.70652115   -0.02474972   1       3  Si
    4.07978154    4.07978152    1.36154824   1       4  Si
    2.70652123   -0.02474967    2.70652123   1       5  Si
    4.07978152    1.36154824    4.07978146   1       6  Si
   -0.02474964    2.70652127    2.70652128   1       7  Si
    1.36154824    4.07978147    4.07978142   1       8  Si
 Kpoints in:          108 . Kpoints trimmed:          108

siesta: k-grid: Number of k-points =   108
siesta: k-grid: Cutoff (effective) =    17.282 Ang
siesta: k-grid: Supercell and displacements
siesta: k-grid:    0   6   0      0.500
siesta: k-grid:    0   0   6      0.500
siesta: k-grid:    6   0   0      0.500
Naive supercell factors:     5    5    5

superc: Internal auxiliary supercell:     5 x     5 x     5  =     125
superc: Number of atoms, orbitals, and projectors:   1000  13000  16000

outcell: Unit cell vectors (Ang):
        5.760510    0.004738    0.004738
        0.004738    5.760510    0.004738
        0.004738    0.004738    5.760510

outcell: Cell vector modules (Ang)   :    5.760514    5.760514    5.760514
outcell: Cell angles (23,13,12) (deg):     89.9057     89.9057     89.9057
outcell: Cell volume (Ang**3)        :    191.1534
New_DM. Step:     2
Re-using DM from previous geometry...
Re-using DM without extrapolation (not allowed)
Density Matrix sparsity pattern changed.

InitMesh: MESH =    36 x    36 x    36 =       46656
InitMesh: Mesh cutoff (required, used) =   100.000   107.941 Ry

siesta: iscf   Eharris(eV)      E_KS(eV)   FreeEng(eV)   dDmax  Ef(eV)
siesta:    1     -859.7575     -859.7947     -859.7969  0.0458 -5.1884
siesta:    2     -859.8697     -859.6671     -859.6691  0.0554 -5.1794
siesta:    3     -859.7297     -859.7192     -859.7195  0.0111 -5.1813
siesta:    4     -859.7296     -859.7085     -859.7098  0.0022 -5.1791
siesta:    5     -859.7296     -859.7150     -859.7163  0.0014 -5.1791
siesta:    6     -859.7296     -859.7260     -859.7274  0.0001 -5.1793

siesta: E_KS(eV) =             -859.7277

siesta: Atomic forces (eV/Ang):
----------------------------------------
   Tot   -0.004133   -0.004126   -0.004118
----------------------------------------
   Max    1.643139
   Res    1.050750    sqrt( Sum f_i^2 / 3N )
----------------------------------------
   Max    1.643139    constrained

Stress-tensor-Voigt (kbar):       96.10       96.10       96.10       -7.17       -7.17       -7.17
(Free)E + p*V (eV/cell)     -871.1944
Target enthalpy (eV/cell)     -859.7290

siesta: Stress tensor (static) (eV/Ang**3):
         0.059980   -0.004475   -0.004475
        -0.004475    0.059980   -0.004475
        -0.004475   -0.004475    0.059980

siesta: Pressure (static):        -96.09980157  kBar

siesta: Stress tensor (total) (eV/Ang**3):
         0.059980   -0.004475   -0.004475
        -0.004475    0.059980   -0.004475
        -0.004475   -0.004475    0.059980

siesta: Pressure (total):        -96.09980157  kBar

mulliken: Mulliken Atomic and Orbital Populations:

Species: Si                  
Atom  Qatom  Qorb
               3s      3s      3py     3pz     3px     3py     3pz     3px     
               3Pdxy   3Pdyz   3Pdz2   3Pdxz   3Pdx2-y2
   1  4.072   0.929   0.444   0.465   0.465   0.465   0.321   0.321   0.321
              0.083   0.083   0.045   0.083   0.045
   2  3.973   0.570   0.612   0.240   0.240   0.240   0.515   0.515   0.515
              0.124   0.124   0.077   0.124   0.077
   3  3.975   0.678   0.561   0.332   0.268   0.332   0.434   0.478   0.434
              0.103   0.112   0.072   0.112   0.057
   4  4.010   0.801   0.504   0.359   0.426   0.359   0.406   0.353   0.406
              0.102   0.093   0.049   0.093   0.059
   5  3.975   0.678   0.561   0.268   0.332   0.332   0.478   0.434   0.434
              0.112   0.112   0.061   0.103   0.068
   6  4.010   0.801   0.504   0.426   0.359   0.359   0.353   0.406   0.406
              0.093   0.093   0.056   0.102   0.052
   7  3.975   0.678   0.561   0.332   0.332   0.268   0.434   0.434   0.478
              0.112   0.103   0.061   0.112   0.068
   8  4.010   0.801   0.504   0.359   0.359   0.426   0.406   0.406   0.353
              0.093   0.102   0.056   0.093   0.052

mulliken: Qtot =       32.000

* Maximum dynamic memory allocated =    77 MB

siesta:                 ==============================
                            Begin CG move =      2
                        ==============================

outcoor: Atomic coordinates (Ang):                          
   -0.06119752   -0.06119750   -0.06119742   1       1  Si
    1.33367313    1.33367317    1.33367318   1       2  Si
    2.68478380    2.68478381   -0.06349717   1       3  Si
    4.07886645    4.07886641    1.36406640   1       4  Si
    2.68478401   -0.06349704    2.68478403   1       5  Si
    4.07886639    1.36406640    4.07886624   1       6  Si
   -0.06349696    2.68478411    2.68478414   1       7  Si
    1.36406641    4.07886626    4.07886615   1       8  Si
 Kpoints in:          108 . Kpoints trimmed:          108

siesta: k-grid: Number of k-points =   108
siesta: k-grid: Cutoff (effective) =    17.092 Ang
siesta: k-grid: Supercell and displacements
siesta: k-grid:    0   6   0      0.500
siesta: k-grid:    0   0   6      0.500
siesta: k-grid:    6   0   0      0.500
Naive supercell factors:     5    5    5

superc: Internal auxiliary supercell:     5 x     5 x     5  =     125
superc: Number of atoms, orbitals, and projectors:   1000  13000  16000

outcell: Unit cell vectors (Ang):
        5.697326    0.012318    0.012318
        0.012318    5.697326    0.012318
        0.012318    0.012318    5.697326

outcell: Cell vector modules (Ang)   :    5.697353    5.697353    5.697353
outcell: Cell angles (23,13,12) (deg):     89.7520     89.7520     89.7520
outcell: Cell volume (Ang**3)        :    184.9299
New_DM. Step:     3
Re-using DM from previous geometry...
Re-using DM without extrapolation (not allowed)
Density Matrix sparsity pattern changed.

InitMesh: MESH =    36 x    36 x    36 =       46656
InitMesh: Mesh cutoff (required, used) =   100.000   110.351 Ry

siesta: iscf   Eharris(eV)      E_KS(eV)   FreeEng(eV)   dDmax  Ef(eV)
siesta:    1     -860.7511     -860.9494     -860.9508  0.0513 -5.2123
siesta:    2     -861.0069     -860.5249     -860.5250  0.0790 -5.1939
siesta:    3     -860.6778     -860.7157     -860.7157  0.0196 -5.2049
siesta:    4     -860.6776     -860.6416     -860.6416  0.0027 -5.2013
siesta:    5     -860.6775     -860.6511     -860.6511  0.0018 -5.2013
siesta:    6     -860.6775     -860.6702     -860.6702  0.0003 -5.2015

siesta: E_KS(eV) =             -860.6735

siesta: Atomic forces (eV/Ang):
----------------------------------------
   Tot    0.000944    0.000939    0.000929
----------------------------------------
   Max    0.948716
   Res    0.722531    sqrt( Sum f_i^2 / 3N )
----------------------------------------
   Max    0.948716    constrained

Stress-tensor-Voigt (kbar):       88.83       88.83       88.83       -0.09       -0.09       -0.09
(Free)E + p*V (eV/cell)     -870.9268
Target enthalpy (eV/cell)     -860.6735

siesta: Stress tensor (static) (eV/Ang**3):
         0.055444   -0.000054   -0.000054
        -0.000054    0.055444   -0.000054
        -0.000054   -0.000054    0.055444

siesta: Pressure (static):        -88.83215890  kBar

siesta: Stress tensor (total) (eV/Ang**3):
         0.055444   -0.000054   -0.000054
        -0.000054    0.055444   -0.000054
        -0.000054   -0.000054    0.055444

siesta: Pressure (total):        -88.83215890  kBar

mulliken: Mulliken Atomic and Orbital Populations:

Species: Si                  
Atom  Qatom  Qorb
               3s      3s      3py     3pz     3px     3py     3pz     3px     
               3Pdxy   3Pdyz   3Pdz2   3Pdxz   3Pdx2-y2
   1  4.045   0.868   0.468   0.413   0.413   0.413   0.366   0.366   0.366
              0.091   0.091   0.050   0.091   0.050
   2  3.983   0.608   0.590   0.256   0.256   0.256   0.503   0.503   0.503
              0.120   0.120   0.073   0.120   0.073
   3  3.987   0.678   0.556   0.320   0.264   0.320   0.449   0.486   0.449
              0.107   0.114   0.071   0.114   0.059
   4  4.004   0.763   0.517   0.334   0.381   0.334   0.431   0.394   0.431
              0.106   0.099   0.054   0.099   0.061
   5  3.987   0.678   0.556   0.264   0.320   0.320   0.486   0.449   0.449
              0.114   0.114   0.062   0.107   0.068
   6  4.004   0.763   0.517   0.381   0.334   0.334   0.394   0.431   0.431
              0.099   0.099   0.059   0.106   0.055
   7  3.987   0.678   0.556   0.320   0.320   0.264   0.449   0.449   0.486
              0.114   0.107   0.062   0.114   0.068
   8  4.004   0.763   0.517   0.334   0.334   0.381   0.431   0.431   0.394
              0.099   0.106   0.059   0.099   0.055

mulliken: Qtot =       32.000

* Maximum dynamic memory allocated =    78 MB

siesta:                 ==============================
                            Begin CG move =      3
                        ==============================

outcoor: Atomic coordinates (Ang):                          
   -0.11982261   -0.11982255   -0.11982240   1       1  Si
    1.30796525    1.30796532    1.30796535   1       2  Si
    2.64956581    2.64956585   -0.12331171   1       3  Si
    4.07595449    4.07595440    1.36820035   1       4  Si
    2.64956623   -0.12331145    2.64956627   1       5  Si
    4.07595436    1.36820034    4.07595408   1       6  Si
   -0.12331131    2.64956644    2.64956649   1       7  Si
    1.36820036    4.07595411    4.07595390   1       8  Si
 Kpoints in:          108 . Kpoints trimmed:          108

siesta: k-grid: Number of k-points =   108
siesta: k-grid: Cutoff (effective) =    16.789 Ang
siesta: k-grid: Supercell and displacements
siesta: k-grid:    0   6   0      0.500
siesta: k-grid:    0   0   6      0.500
siesta: k-grid:    6   0   0      0.500
Naive supercell factors:     5    5    5

superc: Internal auxiliary supercell:     5 x     5 x     5  =     125
superc: Number of atoms, orbitals, and projectors:   1000  13000  16000

outcell: Unit cell vectors (Ang):
        5.596232    0.024446    0.024446
        0.024446    5.596232    0.024446
        0.024446    0.024446    5.596232

outcell: Cell vector modules (Ang)   :    5.596339    5.596339    5.596339
outcell: Cell angles (23,13,12) (deg):     89.4983     89.4983     89.4984
outcell: Cell volume (Ang**3)        :    175.2518
New_DM. Step:     4
Re-using DM from previous geometry...
Re-using DM without extrapolation (not allowed)
Density Matrix sparsity pattern changed.

InitMesh: MESH =    36 x    36 x    36 =       46656
InitMesh: Mesh cutoff (required, used) =   100.000   114.384 Ry

siesta: iscf   Eharris(eV)      E_KS(eV)   FreeEng(eV)   dDmax  Ef(eV)
siesta:    1     -861.6092     -862.3535     -862.3535  0.0612 -5.2236
siesta:    2     -862.1258     -861.1254     -861.1254  0.1026 -5.1381
siesta:    3     -861.4492     -861.6156     -861.6156  0.0254 -5.1577
siesta:    4     -861.4487     -861.3706     -861.3706  0.0032 -5.1503
siesta:    5     -861.4486     -861.3876     -861.3876  0.0022 -5.1515
siesta:    6     -861.4486     -861.4321     -861.4321  0.0005 -5.1535

siesta: E_KS(eV) =             -861.4401

siesta: Atomic forces (eV/Ang):
----------------------------------------
   Tot    0.001405    0.001399    0.001369
----------------------------------------
   Max    1.114667
   Res    0.555554    sqrt( Sum f_i^2 / 3N )
----------------------------------------
   Max    1.114667    constrained

Stress-tensor-Voigt (kbar):       61.12       61.12       61.12       14.36       14.36       14.36
(Free)E + p*V (eV/cell)     -868.1257
Target enthalpy (eV/cell)     -861.4401

siesta: Stress tensor (static) (eV/Ang**3):
         0.038149    0.008964    0.008964
         0.008964    0.038149    0.008964
         0.008964    0.008964    0.038149

siesta: Pressure (static):        -61.12204972  kBar

siesta: Stress tensor (total) (eV/Ang**3):
         0.038149    0.008964    0.008964
         0.008964    0.038149    0.008964
         0.008964    0.008964    0.038149

siesta: Pressure (total):        -61.12204972  kBar

mulliken: Mulliken Atomic and Orbital Populations:

Species: Si                  
Atom  Qatom  Qorb
               3s      3s      3py     3pz     3px     3py     3pz     3px     
               3Pdxy   3Pdyz   3Pdz2   3Pdxz   3Pdx2-y2
   1  4.008   0.761   0.515   0.327   0.327   0.327   0.440   0.440   0.440
              0.105   0.105   0.059   0.105   0.059
   2  3.998   0.659   0.563   0.271   0.271   0.271   0.492   0.492   0.492
              0.116   0.116   0.069   0.116   0.069
   3  3.999   0.665   0.560   0.288   0.257   0.288   0.479   0.500   0.479
              0.113   0.117   0.072   0.117   0.066
   4  3.999   0.698   0.544   0.289   0.303   0.289   0.474   0.464   0.474
              0.113   0.111   0.064   0.111   0.067
   5  3.999   0.665   0.560   0.257   0.288   0.288   0.500   0.479   0.479
              0.117   0.117   0.067   0.113   0.070
   6  3.999   0.698   0.544   0.303   0.289   0.289   0.464   0.474   0.474
              0.111   0.111   0.066   0.113   0.064
   7  3.999   0.665   0.560   0.288   0.288   0.257   0.479   0.479   0.500
              0.117   0.113   0.067   0.117   0.070
   8  3.999   0.698   0.544   0.289   0.289   0.303   0.474   0.474   0.464
              0.111   0.113   0.066   0.111   0.064

mulliken: Qtot =       32.000

* Maximum dynamic memory allocated =    80 MB

siesta:                 ==============================
                            Begin CG move =      4
                        ==============================

outcoor: Atomic coordinates (Ang):                          
   -0.18884126   -0.18884118   -0.18884095   1       1  Si
    1.27703092    1.27703102    1.27703107   1       2  Si
    2.60607171    2.60607175   -0.19234088   1       3  Si
    4.07002221    4.07002207    1.37339423   1       4  Si
    2.60607237   -0.19234048    2.60607242   1       5  Si
    4.07002201    1.37339420    4.07002158   1       6  Si
   -0.19234025    2.60607270    2.60607277   1       7  Si
    1.37339423    4.07002162    4.07002130   1       8  Si
 Kpoints in:          108 . Kpoints trimmed:          108

siesta: k-grid: Number of k-points =   108
siesta: k-grid: Cutoff (effective) =    16.421 Ang
siesta: k-grid: Supercell and displacements
siesta: k-grid:    0   6   0      0.500
siesta: k-grid:    0   0   6      0.500
siesta: k-grid:    6   0   0      0.500
Naive supercell factors:     5    5    5

superc: Internal auxiliary supercell:     5 x     5 x     5  =     125
superc: Number of atoms, orbitals, and projectors:   1000  13000  16000

outcell: Unit cell vectors (Ang):
        5.473463    0.039175    0.039175
        0.039175    5.473463    0.039175
        0.039175    0.039175    5.473463

outcell: Cell vector modules (Ang)   :    5.473744    5.473744    5.473744
outcell: Cell angles (23,13,12) (deg):     89.1770     89.1770     89.1770
outcell: Cell volume (Ang**3)        :    163.9533
New_DM. Step:     5
Re-using DM from previous geometry...
Re-using DM without extrapolation (not allowed)
Density Matrix sparsity pattern changed.

InitMesh: MESH =    36 x    36 x    36 =       46656
InitMesh: Mesh cutoff (required, used) =   100.000   119.595 Ry

siesta: iscf   Eharris(eV)      E_KS(eV)   FreeEng(eV)   dDmax  Ef(eV)
siesta:    1     -861.1035     -862.8252     -862.8252  0.0593 -5.0663
siesta:    2     -861.6267     -860.6226     -860.6241  0.0952 -5.2323
siesta:    3     -860.9465     -861.2378     -861.2388  0.0196 -5.0763
siesta:    4     -860.9457     -860.8440     -860.8456  0.0020 -5.0718
siesta:    5     -860.9456     -860.8677     -860.8693  0.0015 -5.0721
siesta:    6     -860.9456     -860.9292     -860.9308  0.0004 -5.0726

siesta: E_KS(eV) =             -860.9385

siesta: Atomic forces (eV/Ang):
----------------------------------------
   Tot    0.002074    0.002081    0.002081
----------------------------------------
   Max    2.169562
   Res    1.183696    sqrt( Sum f_i^2 / 3N )
----------------------------------------
   Max    2.169562    constrained

Stress-tensor-Voigt (kbar):       -2.45       -2.45       -2.45       43.00       43.00       43.00
(Free)E + p*V (eV/cell)     -860.6897
Target enthalpy (eV/cell)     -860.9401

siesta: Stress tensor (static) (eV/Ang**3):
        -0.001527    0.026837    0.026837
         0.026837   -0.001527    0.026837
         0.026837    0.026837   -0.001527

siesta: Pressure (static):          2.44641517  kBar

siesta: Stress tensor (total) (eV/Ang**3):
        -0.001527    0.026837    0.026837
         0.026837   -0.001527    0.026837
         0.026837    0.026837   -0.001527

siesta: Pressure (total):          2.44641517  kBar

mulliken: Mulliken Atomic and Orbital Populations:

Species: Si                  
Atom  Qatom  Qorb
               3s      3s      3py     3pz     3px     3py     3pz     3px     
               3Pdxy   3Pdyz   3Pdz2   3Pdxz   3Pdx2-y2
   1  3.991   0.625   0.580   0.223   0.223   0.223   0.531   0.531   0.531
              0.123   0.123   0.077   0.123   0.077
   2  3.980   0.701   0.545   0.254   0.254   0.254   0.498   0.498   0.498
              0.115   0.115   0.068   0.115   0.068
   3  4.001   0.628   0.580   0.232   0.234   0.232   0.526   0.522   0.526
              0.123   0.122   0.076   0.122   0.078
   4  4.008   0.603   0.592   0.237   0.197   0.237   0.527   0.551   0.527
              0.122   0.127   0.085   0.127   0.076
   5  4.001   0.628   0.580   0.234   0.232   0.232   0.522   0.526   0.526
              0.122   0.122   0.077   0.123   0.076
   6  4.008   0.603   0.592   0.197   0.237   0.237   0.551   0.527   0.527
              0.127   0.127   0.079   0.122   0.083
   7  4.001   0.628   0.580   0.232   0.232   0.234   0.526   0.526   0.522
              0.122   0.123   0.077   0.122   0.076
   8  4.008   0.603   0.592   0.237   0.237   0.197   0.527   0.527   0.551
              0.127   0.122   0.079   0.127   0.083

mulliken: Qtot =       32.000

* Maximum dynamic memory allocated =    84 MB

siesta:                 ==============================
                            Begin CG move =      5
                        ==============================

outcoor: Atomic coordinates (Ang):                          
   -0.13361795   -0.13361789   -0.13361772   1       1  Si
    1.30184202    1.30184209    1.30184213   1       2  Si
    2.64105425    2.64105429   -0.13723360   1       3  Si
    4.07499296    4.07499286    1.36920922   1       4  Si
    2.64105472   -0.13723331    2.64105476   1       5  Si
    4.07499282    1.36920920    4.07499251   1       6  Si
   -0.13723315    2.64105496    2.64105501   1       7  Si
    1.36920922    4.07499254    4.07499231   1       8  Si
 Kpoints in:          108 . Kpoints trimmed:          108

siesta: k-grid: Number of k-points =   108
siesta: k-grid: Cutoff (effective) =    16.716 Ang
siesta: k-grid: Supercell and displacements
siesta: k-grid:    0   6   0      0.500
siesta: k-grid:    0   0   6      0.500
siesta: k-grid:    6   0   0      0.500
Naive supercell factors:     5    5    5

superc: Internal auxiliary supercell:     5 x     5 x     5  =     125
superc: Number of atoms, orbitals, and projectors:   1000  13000  16000

outcell: Unit cell vectors (Ang):
        5.572030    0.027350    0.027350
        0.027350    5.572030    0.027350
        0.027350    0.027350    5.572030

outcell: Cell vector modules (Ang)   :    5.572164    5.572164    5.572164
outcell: Cell angles (23,13,12) (deg):     89.4362     89.4362     89.4362
outcell: Cell volume (Ang**3)        :    172.9852
New_DM. Step:     6
Re-using DM from previous geometry...
Re-using DM without extrapolation (not allowed)
Density Matrix sparsity pattern changed.

InitMesh: MESH =    36 x    36 x    36 =       46656
InitMesh: Mesh cutoff (required, used) =   100.000   115.383 Ry

siesta: iscf   Eharris(eV)      E_KS(eV)   FreeEng(eV)   dDmax  Ef(eV)
siesta:    1     -861.6215     -859.7159     -859.7175  0.0536 -5.0956
siesta:    2     -862.1003     -861.1864     -861.1864  0.1053 -5.2067
siesta:    3     -861.4804     -860.9096     -860.9096  0.0215 -5.1146
siesta:    4     -861.4800     -861.3824     -861.3824  0.0023 -5.1151
siesta:    5     -861.4799     -861.4149     -861.4149  0.0012 -5.1144
siesta:    6     -861.4799     -861.4620     -861.4620  0.0003 -5.1131

siesta: E_KS(eV) =             -861.4697

siesta: Atomic forces (eV/Ang):
----------------------------------------
   Tot   -0.000745   -0.000743   -0.000760
----------------------------------------
   Max    1.242201
   Res    0.643311    sqrt( Sum f_i^2 / 3N )
----------------------------------------
   Max    1.242201    constrained

Stress-tensor-Voigt (kbar):       51.19       51.19       51.19       18.99       18.99       18.99
(Free)E + p*V (eV/cell)     -866.9962
Target enthalpy (eV/cell)     -861.4697

siesta: Stress tensor (static) (eV/Ang**3):
         0.031948    0.011854    0.011854
         0.011854    0.031948    0.011854
         0.011854    0.011854    0.031948

siesta: Pressure (static):        -51.18648088  kBar

siesta: Stress tensor (total) (eV/Ang**3):
         0.031948    0.011854    0.011854
         0.011854    0.031948    0.011854
         0.011854    0.011854    0.031948

siesta: Pressure (total):        -51.18648088  kBar

mulliken: Mulliken Atomic and Orbital Populations:

Species: Si                  
Atom  Qatom  Qorb
               3s      3s      3py     3pz     3px     3py     3pz     3px     
               3Pdxy   3Pdyz   3Pdz2   3Pdxz   3Pdx2-y2
   1  4.000   0.736   0.526   0.304   0.304   0.304   0.459   0.459   0.459
              0.108   0.108   0.062   0.108   0.062
   2  3.996   0.669   0.557   0.270   0.270   0.270   0.491   0.491   0.491
              0.116   0.116   0.069   0.116   0.069
   3  4.001   0.660   0.562   0.277   0.253   0.277   0.489   0.504   0.489
              0.115   0.118   0.072   0.118   0.068
   4  4.000   0.681   0.552   0.278   0.284   0.278   0.485   0.480   0.485
              0.114   0.114   0.067   0.114   0.068
   5  4.001   0.660   0.562   0.253   0.277   0.277   0.504   0.489   0.489
              0.118   0.118   0.069   0.115   0.071
   6  4.000   0.681   0.552   0.284   0.278   0.278   0.480   0.485   0.485
              0.114   0.114   0.068   0.114   0.067
   7  4.001   0.660   0.562   0.277   0.277   0.253   0.489   0.489   0.504
              0.118   0.115   0.069   0.118   0.071
   8  4.000   0.681   0.552   0.278   0.278   0.284   0.485   0.485   0.480
              0.114   0.114   0.068   0.114   0.067

mulliken: Qtot =       32.000

cgvc: Finished line minimization    1.  Mean atomic displacement =    0.1715

* Maximum dynamic memory allocated =    85 MB

siesta:                 ==============================
                            Begin CG move =      6
                        ==============================

outcoor: Atomic coordinates (Ang):                          
   -0.14244482   -0.14244482   -0.14244507   1       1  Si
    1.22523717    1.22523736    1.22523744   1       2  Si
    2.60799089    2.60799079   -0.14018319   1       3  Si
    3.97566627    3.97566638    1.23796649   1       4  Si
    2.60799179   -0.14018252    2.60799034   1       5  Si
    3.97566626    1.23796648    3.97566624   1       6  Si
   -0.14018227    2.60799188    2.60799062   1       7  Si
    1.23796651    3.97566601    3.97566608   1       8  Si
 Kpoints in:          108 . Kpoints trimmed:          108

siesta: k-grid: Number of k-points =   108
siesta: k-grid: Cutoff (effective) =    16.348 Ang
siesta: k-grid: Supercell and displacements
siesta: k-grid:    0   6   0      0.500
siesta: k-grid:    6   0   0      0.500
siesta: k-grid:    0   0   6      0.500
Naive supercell factors:     5    5    5

superc: Internal auxiliary supercell:     5 x     5 x     5  =     125
superc: Number of atoms, orbitals, and projectors:   1000  13000  16000

outcell: Unit cell vectors (Ang):
        5.449260    0.002670    0.002669
        0.002670    5.449260    0.002669
        0.002669    0.002669    5.449260

outcell: Cell vector modules (Ang)   :    5.449262    5.449262    5.449262
outcell: Cell angles (23,13,12) (deg):     89.9439     89.9439     89.9438
outcell: Cell volume (Ang**3)        :    161.8126
New_DM. Step:     7
Re-using DM from previous geometry...
Re-using DM without extrapolation (not allowed)
Density Matrix sparsity pattern changed.

InitMesh: MESH =    36 x    36 x    36 =       46656
InitMesh: Mesh cutoff (required, used) =   100.000   120.624 Ry

siesta: iscf   Eharris(eV)      E_KS(eV)   FreeEng(eV)   dDmax  Ef(eV)
siesta:    1     -862.0310     -863.4865     -863.4865  0.0520 -5.3359
siesta:    2     -862.2916     -861.7679     -861.7679  0.0803 -5.3679
siesta:    3     -861.9412     -862.1648     -862.1648  0.0162 -5.3396
siesta:    4     -861.9406     -861.8911     -861.8911  0.0033 -5.3357
siesta:    5     -861.9405     -861.8999     -861.8999  0.0023 -5.3354
siesta:    6     -861.9405     -861.9317     -861.9317  0.0003 -5.3352

siesta: E_KS(eV) =             -861.9356

siesta: Atomic forces (eV/Ang):
----------------------------------------
   Tot   -0.000762   -0.000771   -0.000758
----------------------------------------
   Max    0.354817
   Res    0.217376    sqrt( Sum f_i^2 / 3N )
----------------------------------------
   Max    0.354817    constrained

Stress-tensor-Voigt (kbar):        3.04        3.04        3.04        3.70        3.70        3.70
(Free)E + p*V (eV/cell)     -862.2426
Target enthalpy (eV/cell)     -861.9356

siesta: Stress tensor (static) (eV/Ang**3):
         0.001897    0.002307    0.002307
         0.002307    0.001897    0.002307
         0.002307    0.002307    0.001897

siesta: Pressure (static):         -3.03952529  kBar

siesta: Stress tensor (total) (eV/Ang**3):
         0.001897    0.002307    0.002307
         0.002307    0.001897    0.002307
         0.002307    0.002307    0.001897

siesta: Pressure (total):         -3.03952529  kBar

mulliken: Mulliken Atomic and Orbital Populations:

Species: Si                  
Atom  Qatom  Qorb
               3s      3s      3py     3pz     3px     3py     3pz     3px     
               3Pdxy   3Pdyz   3Pdz2   3Pdxz   3Pdx2-y2
   1  4.003   0.619   0.579   0.212   0.212   0.212   0.544   0.544   0.544
              0.127   0.127   0.078   0.127   0.078
   2  3.998   0.669   0.554   0.236   0.236   0.236   0.520   0.520   0.520
              0.121   0.121   0.072   0.121   0.072
   3  3.999   0.648   0.566   0.222   0.235   0.222   0.533   0.524   0.533
              0.124   0.123   0.073   0.123   0.075
   4  4.001   0.631   0.574   0.225   0.206   0.225   0.533   0.545   0.533
              0.124   0.126   0.078   0.126   0.075
   5  3.999   0.648   0.566   0.235   0.222   0.222   0.524   0.533   0.533
              0.123   0.123   0.075   0.124   0.074
   6  4.001   0.631   0.574   0.206   0.225   0.225   0.545   0.533   0.533
              0.126   0.126   0.075   0.124   0.077
   7  3.999   0.648   0.566   0.222   0.222   0.235   0.533   0.533   0.524
              0.123   0.124   0.075   0.123   0.074
   8  4.001   0.631   0.574   0.225   0.225   0.206   0.533   0.533   0.545
              0.126   0.124   0.075   0.126   0.077

mulliken: Qtot =       32.000

* Maximum dynamic memory allocated =    85 MB

siesta:                 ==============================
                            Begin CG move =      7
                        ==============================

outcoor: Atomic coordinates (Ang):                          
   -0.14215118   -0.14215117   -0.14215141   1       1  Si
    1.22786549    1.22786567    1.22786576   1       2  Si
    2.60917719    2.60917710   -0.14005695   1       3  Si
    3.97912718    3.97912728    1.24249040   1       4  Si
    2.60917808   -0.14005630    2.60917667   1       5  Si
    3.97912716    1.24249038    3.97912713   1       6  Si
   -0.14005604    2.60917817    2.60917696   1       7  Si
    1.24249042    3.97912691    3.97912697   1       8  Si
 Kpoints in:          108 . Kpoints trimmed:          108

siesta: k-grid: Number of k-points =   108
siesta: k-grid: Cutoff (effective) =    16.361 Ang
siesta: k-grid: Supercell and displacements
siesta: k-grid:    0   6   0      0.500
siesta: k-grid:    6   0   0      0.500
siesta: k-grid:    0   0   6      0.500
Naive supercell factors:     5    5    5

superc: Internal auxiliary supercell:     5 x     5 x     5  =     125
superc: Number of atoms, orbitals, and projectors:   1000  13000  16000

outcell: Unit cell vectors (Ang):
        5.453535    0.003529    0.003529
        0.003529    5.453535    0.003529
        0.003529    0.003529    5.453535

outcell: Cell vector modules (Ang)   :    5.453538    5.453537    5.453538
outcell: Cell angles (23,13,12) (deg):     89.9258     89.9258     89.9258
outcell: Cell volume (Ang**3)        :    162.1936
New_DM. Step:     8
Re-using DM from previous geometry...
Re-using DM without extrapolation (not allowed)

InitMesh: MESH =    36 x    36 x    36 =       46656
InitMesh: Mesh cutoff (required, used) =   100.000   120.435 Ry

siesta: iscf   Eharris(eV)      E_KS(eV)   FreeEng(eV)   dDmax  Ef(eV)
siesta:    1     -861.9407     -861.8698     -861.8698  0.0022 -5.3243
siesta:    2     -861.9410     -861.9404     -861.9404  0.0026 -5.3232
siesta:    3     -861.9406     -861.9283     -861.9283  0.0006 -5.3241

siesta: E_KS(eV) =             -861.9403

siesta: Atomic forces (eV/Ang):
----------------------------------------
   Tot    0.001077    0.001073    0.001094
----------------------------------------
   Max    0.378568
   Res    0.217424    sqrt( Sum f_i^2 / 3N )
----------------------------------------
   Max    0.378568    constrained

Stress-tensor-Voigt (kbar):        5.24        5.24        5.24        4.43        4.43        4.43
(Free)E + p*V (eV/cell)     -862.4703
Target enthalpy (eV/cell)     -861.9403

siesta: Stress tensor (static) (eV/Ang**3):
         0.003268    0.002763    0.002763
         0.002763    0.003268    0.002763
         0.002763    0.002763    0.003268

siesta: Pressure (static):         -5.23560094  kBar

siesta: Stress tensor (total) (eV/Ang**3):
         0.003268    0.002763    0.002763
         0.002763    0.003268    0.002763
         0.002763    0.002763    0.003268

siesta: Pressure (total):         -5.23560094  kBar

mulliken: Mulliken Atomic and Orbital Populations:

Species: Si                  
Atom  Qatom  Qorb
               3s      3s      3py     3pz     3px     3py     3pz     3px     
               3Pdxy   3Pdyz   3Pdz2   3Pdxz   3Pdx2-y2
   1  4.002   0.623   0.577   0.215   0.215   0.215   0.541   0.541   0.541
              0.126   0.126   0.077   0.126   0.077
   2  3.998   0.669   0.554   0.237   0.237   0.237   0.519   0.519   0.519
              0.120   0.120   0.072   0.120   0.072
   3  3.999   0.649   0.565   0.224   0.235   0.224   0.531   0.523   0.531
              0.124   0.123   0.073   0.123   0.075
   4  4.001   0.633   0.573   0.227   0.209   0.227   0.532   0.543   0.532
              0.124   0.125   0.077   0.125   0.075
   5  3.999   0.649   0.565   0.235   0.224   0.224   0.523   0.531   0.531
              0.123   0.123   0.075   0.124   0.074
   6  4.001   0.633   0.573   0.209   0.227   0.227   0.543   0.532   0.532
              0.125   0.125   0.075   0.124   0.077
   7  3.999   0.649   0.565   0.224   0.224   0.235   0.531   0.531   0.523
              0.123   0.124   0.075   0.123   0.074
   8  4.001   0.633   0.573   0.227   0.227   0.209   0.532   0.532   0.543
              0.125   0.124   0.075   0.125   0.077

mulliken: Qtot =       32.000

cgvc: Finished line minimization    2.  Mean atomic displacement =    0.1655

* Maximum dynamic memory allocated =    85 MB

siesta:                 ==============================
                            Begin CG move =      8
                        ==============================

outcoor: Atomic coordinates (Ang):                          
   -0.08467488   -0.08467479   -0.08467437   1       1  Si
    1.23850954    1.23850887    1.23850783   1       2  Si
    2.57104228    2.57104256   -0.08261476   1       3  Si
    3.88794220    3.88794151    1.20493871   1       4  Si
    2.57104098   -0.08261547    2.57104610   1       5  Si
    3.88794459    1.20494143    3.88794313   1       6  Si
   -0.08261601    2.57104130    2.57104497   1       7  Si
    1.20494176    3.88794514    3.88794405   1       8  Si
 Kpoints in:          108 . Kpoints trimmed:          108

siesta: k-grid: Number of k-points =   108
siesta: k-grid: Cutoff (effective) =    16.312 Ang
siesta: k-grid: Supercell and displacements
siesta: k-grid:    6   0   0      0.500
siesta: k-grid:    0   0   6      0.500
siesta: k-grid:    0   6   0      0.500
Naive supercell factors:     5    5    5

superc: Internal auxiliary supercell:     5 x     5 x     5  =     125
superc: Number of atoms, orbitals, and projectors:   1000  13000  16000

outcell: Unit cell vectors (Ang):
        5.437317   -0.018724   -0.018723
       -0.018724    5.437317   -0.018723
       -0.018723   -0.018723    5.437317

outcell: Cell vector modules (Ang)   :    5.437381    5.437381    5.437381
outcell: Cell angles (23,13,12) (deg):     90.3939     90.3939     90.3939
outcell: Cell volume (Ang**3)        :    160.7454
New_DM. Step:     9
Re-using DM from previous geometry...
Re-using DM without extrapolation (not allowed)
Density Matrix sparsity pattern changed.

InitMesh: MESH =    36 x    36 x    36 =       46656
InitMesh: Mesh cutoff (required, used) =   100.000   121.163 Ry

siesta: iscf   Eharris(eV)      E_KS(eV)   FreeEng(eV)   dDmax  Ef(eV)
siesta:    1     -861.8216     -861.9761     -861.9761  0.0340 -5.3264
siesta:    2     -862.5231     -861.1571     -861.1571  0.1371 -5.3812
siesta:    3     -861.6022     -861.6162     -861.6163  0.0264 -5.3484
siesta:    4     -861.6021     -861.5174     -861.5174  0.0023 -5.3459
siesta:    5     -861.6019     -861.5393     -861.5393  0.0012 -5.3458
siesta:    6     -861.6019     -861.5748     -861.5748  0.0006 -5.3460

siesta: E_KS(eV) =             -861.5913

siesta: Atomic forces (eV/Ang):
----------------------------------------
   Tot   -0.001176   -0.001172   -0.001167
----------------------------------------
   Max    1.475471
   Res    0.864283    sqrt( Sum f_i^2 / 3N )
----------------------------------------
   Max    1.475471    constrained

Stress-tensor-Voigt (kbar):       -9.11       -9.11       -9.11      -25.01      -25.01      -25.01
(Free)E + p*V (eV/cell)     -860.6775
Target enthalpy (eV/cell)     -861.5913

siesta: Stress tensor (static) (eV/Ang**3):
        -0.005684   -0.015608   -0.015607
        -0.015608   -0.005684   -0.015607
        -0.015607   -0.015607   -0.005684

siesta: Pressure (static):          9.10742382  kBar

siesta: Stress tensor (total) (eV/Ang**3):
        -0.005684   -0.015608   -0.015607
        -0.015608   -0.005684   -0.015607
        -0.015607   -0.015607   -0.005684

siesta: Pressure (total):          9.10742382  kBar

mulliken: Mulliken Atomic and Orbital Populations:

Species: Si                  
Atom  Qatom  Qorb
               3s      3s      3py     3pz     3px     3py     3pz     3px     
               3Pdxy   3Pdyz   3Pdz2   3Pdxz   3Pdx2-y2
   1  3.999   0.689   0.546   0.247   0.247   0.247   0.510   0.510   0.510
              0.118   0.118   0.070   0.118   0.070
   2  4.012   0.560   0.611   0.183   0.183   0.183   0.573   0.573   0.573
              0.135   0.135   0.085   0.135   0.085
   3  4.000   0.611   0.585   0.220   0.178   0.220   0.540   0.566   0.540
              0.125   0.129   0.082   0.129   0.076
   4  3.997   0.653   0.564   0.214   0.254   0.214   0.536   0.510   0.536
              0.125   0.121   0.071   0.121   0.078
   5  4.000   0.611   0.585   0.178   0.220   0.220   0.566   0.540   0.540
              0.129   0.129   0.077   0.125   0.080
   6  3.997   0.653   0.564   0.254   0.214   0.214   0.510   0.536   0.536
              0.121   0.121   0.076   0.125   0.072
   7  4.000   0.611   0.585   0.220   0.220   0.178   0.540   0.540   0.566
              0.129   0.125   0.077   0.129   0.080
   8  3.997   0.653   0.564   0.214   0.214   0.254   0.536   0.536   0.510
              0.121   0.125   0.076   0.121   0.072

mulliken: Qtot =       32.000

* Maximum dynamic memory allocated =    88 MB

siesta:                 ==============================
                            Begin CG move =      9
                        ==============================

outcoor: Atomic coordinates (Ang):                          
   -0.12973597   -0.12973595   -0.12973605   1       1  Si
    1.23019105    1.23019106    1.23019090   1       2  Si
    2.60103989    2.60103988   -0.12774332   1       3  Si
    3.95952786    3.95952779    1.23436692   1       4  Si
    2.60104031   -0.12774297    2.60104030   1       5  Si
    3.95952836    1.23436749    3.95952803   1       6  Si
   -0.12774288    2.60104045    2.60104028   1       7  Si
    1.23436759    3.95952828    3.95952810   1       8  Si
 Kpoints in:          108 . Kpoints trimmed:          108

siesta: k-grid: Number of k-points =   108
siesta: k-grid: Cutoff (effective) =    16.350 Ang
siesta: k-grid: Supercell and displacements
siesta: k-grid:    6   0   0      0.500
siesta: k-grid:    0   6   0      0.500
siesta: k-grid:    0   0   6      0.500
Naive supercell factors:     5    5    5

superc: Internal auxiliary supercell:     5 x     5 x     5  =     125
superc: Number of atoms, orbitals, and projectors:   1000  13000  16000

outcell: Unit cell vectors (Ang):
        5.450062   -0.001237   -0.001237
       -0.001237    5.450062   -0.001237
       -0.001237   -0.001237    5.450062

outcell: Cell vector modules (Ang)   :    5.450062    5.450062    5.450062
outcell: Cell angles (23,13,12) (deg):     90.0260     90.0260     90.0260
outcell: Cell volume (Ang**3)        :    161.8841
New_DM. Step:    10
Re-using DM from previous geometry...
Re-using DM without extrapolation (not allowed)
Density Matrix sparsity pattern changed.

InitMesh: MESH =    36 x    36 x    36 =       46656
InitMesh: Mesh cutoff (required, used) =   100.000   120.588 Ry

siesta: iscf   Eharris(eV)      E_KS(eV)   FreeEng(eV)   dDmax  Ef(eV)
siesta:    1     -862.1012     -861.5630     -861.5630  0.0282 -5.3246
siesta:    2     -862.5130     -861.7042     -861.7042  0.0826 -5.3588
siesta:    3     -861.9702     -861.7434     -861.7434  0.0229 -5.3276
siesta:    4     -861.9700     -861.9116     -861.9116  0.0011 -5.3282
siesta:    5     -861.9699     -861.9311     -861.9311  0.0008 -5.3280

siesta: E_KS(eV) =             -861.9548

siesta: Atomic forces (eV/Ang):
----------------------------------------
   Tot    0.000791    0.000795    0.000807
----------------------------------------
   Max    0.075802
   Res    0.048670    sqrt( Sum f_i^2 / 3N )
----------------------------------------
   Max    0.075802    constrained

Stress-tensor-Voigt (kbar):        3.91        3.91        3.91       -1.36       -1.36       -1.36
(Free)E + p*V (eV/cell)     -862.3496
Target enthalpy (eV/cell)     -861.9548

siesta: Stress tensor (static) (eV/Ang**3):
         0.002439   -0.000849   -0.000849
        -0.000849    0.002439   -0.000849
        -0.000849   -0.000849    0.002439

siesta: Pressure (static):         -3.90724898  kBar

siesta: Stress tensor (total) (eV/Ang**3):
         0.002439   -0.000849   -0.000849
        -0.000849    0.002439   -0.000849
        -0.000849   -0.000849    0.002439

siesta: Pressure (total):         -3.90724898  kBar

mulliken: Mulliken Atomic and Orbital Populations:

Species: Si                  
Atom  Qatom  Qorb
               3s      3s      3py     3pz     3px     3py     3pz     3px     
               3Pdxy   3Pdyz   3Pdz2   3Pdxz   3Pdx2-y2
   1  4.000   0.639   0.570   0.222   0.222   0.222   0.534   0.534   0.534
              0.124   0.124   0.075   0.124   0.075
   2  4.000   0.646   0.566   0.226   0.226   0.226   0.530   0.530   0.530
              0.123   0.123   0.075   0.123   0.075
   3  4.000   0.642   0.568   0.223   0.225   0.223   0.533   0.532   0.533
              0.124   0.124   0.075   0.124   0.075
   4  4.000   0.639   0.570   0.224   0.221   0.224   0.533   0.535   0.533
              0.124   0.124   0.076   0.124   0.075
   5  4.000   0.642   0.568   0.225   0.223   0.223   0.532   0.533   0.533
              0.124   0.124   0.075   0.124   0.075
   6  4.000   0.639   0.570   0.221   0.224   0.224   0.535   0.533   0.533
              0.124   0.124   0.075   0.124   0.075
   7  4.000   0.642   0.568   0.223   0.223   0.225   0.533   0.533   0.532
              0.124   0.124   0.075   0.124   0.075
   8  4.000   0.639   0.570   0.224   0.224   0.221   0.533   0.533   0.535
              0.124   0.124   0.075   0.124   0.075

mulliken: Qtot =       32.000

cgvc: Finished line minimization    3.  Mean atomic displacement =    0.0354

* Maximum dynamic memory allocated =    88 MB

siesta:                 ==============================
                            Begin CG move =     10
                        ==============================

outcoor: Atomic coordinates (Ang):                          
   -0.12909998   -0.12910030   -0.12909944   1       1  Si
    1.24151190    1.24151214    1.24151330   1       2  Si
    2.58156826    2.58156776   -0.11861283   1       3  Si
    3.95365173    3.95365165    1.24536407   1       4  Si
    2.58156970   -0.11861208    2.58156801   1       5  Si
    3.95365106    1.24536328    3.95365141   1       6  Si
   -0.11861213    2.58156971    2.58156860   1       7  Si
    1.24536290    3.95365120    3.95365108   1       8  Si
 Kpoints in:          108 . Kpoints trimmed:          108

siesta: k-grid: Number of k-points =   108
siesta: k-grid: Cutoff (effective) =    16.296 Ang
siesta: k-grid: Supercell and displacements
siesta: k-grid:    6   0   0      0.500
siesta: k-grid:    0   0   6      0.500
siesta: k-grid:    0   6   0      0.500
Naive supercell factors:     5    5    5

superc: Internal auxiliary supercell:     5 x     5 x     5  =     125
superc: Number of atoms, orbitals, and projectors:   1000  13000  16000

outcell: Unit cell vectors (Ang):
        5.431890    0.004516    0.004516
        0.004516    5.431890    0.004516
        0.004516    0.004516    5.431890

outcell: Cell vector modules (Ang)   :    5.431894    5.431894    5.431894
outcell: Cell angles (23,13,12) (deg):     89.9047     89.9047     89.9047
outcell: Cell volume (Ang**3)        :    160.2699
New_DM. Step:    11
Re-using DM from previous geometry...
Re-using DM without extrapolation (not allowed)
Density Matrix sparsity pattern changed.

InitMesh: MESH =    36 x    36 x    36 =       46656
InitMesh: Mesh cutoff (required, used) =   100.000   121.397 Ry

siesta: iscf   Eharris(eV)      E_KS(eV)   FreeEng(eV)   dDmax  Ef(eV)
siesta:    1     -861.9615     -862.2229     -862.2229  0.0098 -5.3342
siesta:    2     -861.9761     -861.9470     -861.9470  0.0187 -5.3323
siesta:    3     -861.9566     -862.0126     -862.0126  0.0040 -5.3301
siesta:    4     -861.9565     -861.9527     -861.9527  0.0005 -5.3291

siesta: E_KS(eV) =             -861.9536

siesta: Atomic forces (eV/Ang):
----------------------------------------
   Tot    0.002473    0.002466    0.002455
----------------------------------------
   Max    0.239268
   Res    0.164361    sqrt( Sum f_i^2 / 3N )
----------------------------------------
   Max    0.239268    constrained

Stress-tensor-Voigt (kbar):       -5.31       -5.31       -5.31        5.51        5.51        5.51
(Free)E + p*V (eV/cell)     -861.4220
Target enthalpy (eV/cell)     -861.9536

siesta: Stress tensor (static) (eV/Ang**3):
        -0.003317    0.003441    0.003441
         0.003441   -0.003317    0.003441
         0.003441    0.003441   -0.003317

siesta: Pressure (static):          5.31416850  kBar

siesta: Stress tensor (total) (eV/Ang**3):
        -0.003317    0.003441    0.003441
         0.003441   -0.003317    0.003441
         0.003441    0.003441   -0.003317

siesta: Pressure (total):          5.31416850  kBar

mulliken: Mulliken Atomic and Orbital Populations:

Species: Si                  
Atom  Qatom  Qorb
               3s      3s      3py     3pz     3px     3py     3pz     3px     
               3Pdxy   3Pdyz   3Pdz2   3Pdxz   3Pdx2-y2
   1  3.999   0.640   0.569   0.217   0.217   0.217   0.538   0.538   0.538
              0.125   0.125   0.076   0.125   0.076
   2  4.002   0.621   0.579   0.209   0.209   0.209   0.546   0.546   0.546
              0.127   0.127   0.078   0.127   0.078
   3  4.000   0.631   0.574   0.214   0.210   0.214   0.541   0.544   0.541
              0.126   0.126   0.077   0.126   0.076
   4  3.999   0.638   0.570   0.213   0.221   0.213   0.540   0.536   0.540
              0.126   0.125   0.075   0.125   0.076
   5  4.000   0.631   0.574   0.210   0.214   0.214   0.544   0.541   0.541
              0.126   0.126   0.076   0.126   0.077
   6  3.999   0.638   0.570   0.221   0.213   0.213   0.536   0.540   0.540
              0.125   0.125   0.076   0.126   0.076
   7  4.000   0.631   0.574   0.214   0.214   0.210   0.541   0.541   0.544
              0.126   0.126   0.076   0.126   0.077
   8  3.999   0.638   0.570   0.213   0.213   0.221   0.540   0.540   0.536
              0.125   0.126   0.076   0.125   0.076

mulliken: Qtot =       32.000

* Maximum dynamic memory allocated =    88 MB

siesta:                 ==============================
                            Begin CG move =     11
                        ==============================

outcoor: Atomic coordinates (Ang):                          
   -0.12956601   -0.12956607   -0.12956592   1       1  Si
    1.23321752    1.23321759    1.23321779   1       2  Si
    2.59583305    2.59583290   -0.12529722   1       3  Si
    3.95795798    3.95795791    1.23730752   1       4  Si
    2.59583374   -0.12529675    2.59583328   1       5  Si
    3.95795817    1.23730773    3.95795801   1       6  Si
   -0.12529671    2.59583385    2.59583342   1       7  Si
    1.23730770    3.95795815    3.95795798   1       8  Si
 Kpoints in:          108 . Kpoints trimmed:          108

siesta: k-grid: Number of k-points =   108
siesta: k-grid: Cutoff (effective) =    16.336 Ang
siesta: k-grid: Supercell and displacements
siesta: k-grid:    6   0   0      0.500
siesta: k-grid:    0   6   0      0.500
siesta: k-grid:    0   0   6      0.500
Naive supercell factors:     5    5    5

superc: Internal auxiliary supercell:     5 x     5 x     5  =     125
superc: Number of atoms, orbitals, and projectors:   1000  13000  16000

outcell: Unit cell vectors (Ang):
        5.445209    0.000300    0.000300
        0.000300    5.445209    0.000299
        0.000300    0.000299    5.445209

outcell: Cell vector modules (Ang)   :    5.445209    5.445209    5.445209
outcell: Cell angles (23,13,12) (deg):     89.9937     89.9937     89.9937
outcell: Cell volume (Ang**3)        :    161.4521
New_DM. Step:    12
Re-using DM from previous geometry...
Re-using DM without extrapolation (not allowed)
Density Matrix sparsity pattern changed.

InitMesh: MESH =    36 x    36 x    36 =       46656
InitMesh: Mesh cutoff (required, used) =   100.000   120.803 Ry

siesta: iscf   Eharris(eV)      E_KS(eV)   FreeEng(eV)   dDmax  Ef(eV)
siesta:    1     -861.9747     -861.7584     -861.7584  0.0078 -5.3304
siesta:    2     -861.9828     -861.9664     -861.9664  0.0133 -5.3350
siesta:    3     -861.9718     -861.9222     -861.9222  0.0031 -5.3327
siesta:    4     -861.9718     -861.9706     -861.9706  0.0004 -5.3332

siesta: E_KS(eV) =             -861.9712

siesta: Atomic forces (eV/Ang):
----------------------------------------
   Tot   -0.001727   -0.001731   -0.001737
----------------------------------------
   Max    0.028425
   Res    0.018525    sqrt( Sum f_i^2 / 3N )
----------------------------------------
   Max    0.028425    constrained

Stress-tensor-Voigt (kbar):        1.26        1.26        1.26        0.21        0.21        0.21
(Free)E + p*V (eV/cell)     -862.0983
Target enthalpy (eV/cell)     -861.9712

siesta: Stress tensor (static) (eV/Ang**3):
         0.000787    0.000133    0.000133
         0.000133    0.000787    0.000133
         0.000133    0.000133    0.000787

siesta: Pressure (static):         -1.26102761  kBar

siesta: Stress tensor (total) (eV/Ang**3):
         0.000787    0.000133    0.000133
         0.000133    0.000787    0.000133
         0.000133    0.000133    0.000787

siesta: Pressure (total):         -1.26102761  kBar

mulliken: Mulliken Atomic and Orbital Populations:

Species: Si                  
Atom  Qatom  Qorb
               3s      3s      3py     3pz     3px     3py     3pz     3px     
               3Pdxy   3Pdyz   3Pdz2   3Pdxz   3Pdx2-y2
   1  4.000   0.639   0.569   0.221   0.221   0.221   0.535   0.535   0.535
              0.124   0.124   0.075   0.124   0.075
   2  4.000   0.640   0.569   0.222   0.222   0.222   0.534   0.534   0.534
              0.124   0.124   0.075   0.124   0.075
   3  4.000   0.639   0.569   0.221   0.221   0.221   0.535   0.535   0.535
              0.124   0.124   0.075   0.124   0.075
   4  4.000   0.639   0.569   0.221   0.221   0.221   0.535   0.535   0.535
              0.124   0.124   0.075   0.124   0.075
   5  4.000   0.639   0.569   0.221   0.221   0.221   0.535   0.535   0.535
              0.124   0.124   0.075   0.124   0.075
   6  4.000   0.639   0.569   0.221   0.221   0.221   0.535   0.535   0.535
              0.124   0.124   0.075   0.124   0.075
   7  4.000   0.639   0.569   0.221   0.221   0.221   0.535   0.535   0.535
              0.124   0.124   0.075   0.124   0.075
   8  4.000   0.639   0.569   0.221   0.221   0.221   0.535   0.535   0.535
              0.124   0.124   0.075   0.124   0.075

mulliken: Qtot =       32.000

* Maximum dynamic memory allocated =    88 MB

outcoor: Relaxed atomic coordinates (Ang):                  
   -0.12956601   -0.12956607   -0.12956592   1       1  Si
    1.23321752    1.23321759    1.23321779   1       2  Si
    2.59583305    2.59583290   -0.12529722   1       3  Si
    3.95795798    3.95795791    1.23730752   1       4  Si
    2.59583374   -0.12529675    2.59583328   1       5  Si
    3.95795817    1.23730773    3.95795801   1       6  Si
   -0.12529671    2.59583385    2.59583342   1       7  Si
    1.23730770    3.95795815    3.95795798   1       8  Si

outcell: Unit cell vectors (Ang):
        5.445209    0.000300    0.000300
        0.000300    5.445209    0.000299
        0.000300    0.000299    5.445209

outcell: Cell vector modules (Ang)   :    5.445209    5.445209    5.445209
outcell: Cell angles (23,13,12) (deg):     89.9937     89.9937     89.9937
outcell: Cell volume (Ang**3)        :    161.4521

coxmol: Writing XMOL coordinates into file si.xyz                                                          
Writing WFSX for selected k-points in si.selected.WFSX

writewave: Wave Functions Coefficients

     Number of k-points =        1
        Number of Spins =        1
   Number of basis orbs =      104


                                                                  ******
            k-point =        1    0.000000  0.000000  0.000000
     Spin component =        1
 Num. wavefunctions =       50
Use readwfsx utility to print wavefunction coefficients from WFSX file
Computing bands...

siesta: Band k vectors (Bohr**-1):
  ik           k
   1    0.286631    0.286631    0.286631
   2    0.275166    0.275166    0.275166
   3    0.263700    0.263700    0.263700
   4    0.252235    0.252235    0.252235
   5    0.240770    0.240770    0.240770
   6    0.229305    0.229305    0.229305
   7    0.217839    0.217839    0.217839
   8    0.206374    0.206374    0.206374
   9    0.194909    0.194909    0.194909
  10    0.183444    0.183444    0.183444
  11    0.171978    0.171978    0.171978
  12    0.160513    0.160513    0.160513
  13    0.149048    0.149048    0.149048
  14    0.137583    0.137583    0.137583
  15    0.126118    0.126118    0.126118
  16    0.114652    0.114652    0.114652
  17    0.103187    0.103187    0.103187
  18    0.091722    0.091722    0.091722
  19    0.080257    0.080257    0.080257
  20    0.068791    0.068791    0.068791
  21    0.057326    0.057326    0.057326
  22    0.045861    0.045861    0.045861
  23    0.034396    0.034396    0.034396
  24    0.022930    0.022930    0.022930
  25    0.011465    0.011465    0.011465
  26    0.000000    0.000000    0.000000
  27    0.019109    0.000000    0.000000
  28    0.038217    0.000000    0.000000
  29    0.057326    0.000000    0.000000
  30    0.076435    0.000000    0.000000
  31    0.095544    0.000000    0.000000
  32    0.114652    0.000000    0.000000
  33    0.133761    0.000000    0.000000
  34    0.152870    0.000000    0.000000
  35    0.171978    0.000000    0.000000
  36    0.191087    0.000000    0.000000
  37    0.210196    0.000000    0.000000
  38    0.229305    0.000000    0.000000
  39    0.248413    0.000000    0.000000
  40    0.267522    0.000000    0.000000
  41    0.286631    0.000000    0.000000
  42    0.305740    0.000000    0.000000
  43    0.324848    0.000000    0.000000
  44    0.343957    0.000000    0.000000
  45    0.363066    0.000000    0.000000
  46    0.382174    0.000000    0.000000
  47    0.401283    0.000000    0.000000
  48    0.420392    0.000000    0.000000
  49    0.439501    0.000000    0.000000
  50    0.458609    0.000000    0.000000
  51    0.477718    0.000000    0.000000
  52    0.496827    0.000000    0.000000
  53    0.515935    0.000000    0.000000
  54    0.535044    0.000000    0.000000
  55    0.554153    0.000000    0.000000
  56    0.573262    0.000000    0.000000
  57    0.573262    0.014332    0.014332
  58    0.573262    0.028663    0.028663
  59    0.573262    0.042995    0.042995
  60    0.573262    0.057326    0.057326
  61    0.573262    0.071658    0.071658
  62    0.573262    0.085989    0.085989
  63    0.573262    0.100321    0.100321
  64    0.573262    0.114652    0.114652
  65    0.573262    0.128984    0.128984
  66    0.573262    0.143315    0.143315
  67    0.556883    0.139221    0.139221
  68    0.540504    0.135126    0.135126
  69    0.524125    0.131031    0.131031
  70    0.507746    0.126936    0.126936
  71    0.491367    0.122842    0.122842
  72    0.474988    0.118747    0.118747
  73    0.458609    0.114652    0.114652
  74    0.442230    0.110558    0.110558
  75    0.425851    0.106463    0.106463
  76    0.409473    0.102368    0.102368
  77    0.393094    0.098273    0.098273
  78    0.376715    0.094179    0.094179
  79    0.360336    0.090084    0.090084
  80    0.343957    0.085989    0.085989
  81    0.327578    0.081895    0.081895
  82    0.311199    0.077800    0.077800
  83    0.294820    0.073705    0.073705
  84    0.278441    0.069610    0.069610
  85    0.262062    0.065516    0.065516
  86    0.245684    0.061421    0.061421
  87    0.229305    0.057326    0.057326
  88    0.212926    0.053231    0.053231
  89    0.196547    0.049137    0.049137
  90    0.180168    0.045042    0.045042
  91    0.163789    0.040947    0.040947
  92    0.147410    0.036853    0.036853
  93    0.131031    0.032758    0.032758
  94    0.114652    0.028663    0.028663
  95    0.098273    0.024568    0.024568
  96    0.081895    0.020474    0.020474
  97    0.065516    0.016379    0.016379
  98    0.049137    0.012284    0.012284
  99    0.032758    0.008189    0.008189
 100    0.016379    0.004095    0.004095
 101    0.000000    0.000000    0.000000

siesta: Band energies (eV):
  ik is    eps
   1  1 -15.35 -15.29 -15.29 -15.28 -12.66 -12.65 -12.65 -12.58  -6.98  -6.98
         -6.98  -6.92  -6.92  -6.92  -6.88  -6.88  -4.21  -4.12  -4.12  -4.12
         -2.24  -2.24  -2.24  -2.21  -2.21  -2.16  -2.16  -2.16   3.14   3.14
          3.14   3.16   4.85   4.85   4.85   5.02   5.02   5.43   5.43   5.43
          5.60   5.86   5.86   5.86   6.02   6.02   6.02   6.46   6.46   6.54
          6.55   6.55   8.31   8.31   8.32   8.36  16.38  16.47  16.47  16.47
         17.38  17.38  17.43  17.43  17.44  17.52  17.52  17.52  19.38  19.38
         19.38  19.40  19.41  19.41  19.56  19.56  20.13  20.13  20.13  20.98
         29.43  29.43  29.43  29.57  29.57  29.57  29.61  29.61  67.70  68.09
         68.09  68.12  71.27  71.27  71.31  71.84  71.89  71.89  74.56  74.56
        109.56 109.56 109.60 112.78
   2  1 -15.42 -15.28 -15.28 -15.28 -12.63 -12.63 -12.63 -12.47  -7.12  -7.12
         -7.12  -6.96  -6.96  -6.96  -6.87  -6.87  -4.20  -3.98  -3.98  -3.98
         -2.27  -2.27  -2.27  -2.20  -2.20  -2.08  -2.08  -2.08   3.08   3.08
          3.08   3.15   4.45   4.45   4.45   4.65   4.65   5.39   5.39   5.39
          5.42   5.93   5.93   5.93   6.08   6.08   6.08   6.88   6.88   7.05
          7.05   7.05   8.38   8.38   8.38   8.49  16.25  16.40  16.40  16.40
         17.12  17.12  17.25  17.25  17.25  17.47  17.47  17.47  19.26  19.26
         19.26  19.29  19.29  19.29  19.48  19.49  19.49  19.72  19.72  21.26
         29.17  29.17  29.17  29.64  29.64  29.65  29.67  29.67  62.50  62.50
         62.52  64.66  67.97  68.00  68.00  71.18  71.18  71.20  74.14  74.14
        101.21 101.21 101.24 109.22
   3  1 -15.53 -15.27 -15.27 -15.26 -12.60 -12.60 -12.60 -12.31  -7.31  -7.31
         -7.30  -7.01  -7.01  -7.01  -6.85  -6.85  -4.18  -3.81  -3.81  -3.81
         -2.30  -2.30  -2.30  -2.18  -2.18  -1.97  -1.97  -1.97   2.92   2.92
          2.92   3.13   4.16   4.16   4.16   4.28   4.28   5.20   5.35   5.36
          5.36   6.02   6.02   6.02   6.16   6.16   6.17   7.32   7.32   7.54
          7.55   7.55   8.50   8.50   8.50   8.63  16.12  16.21  16.21  16.22
         16.80  16.80  16.99  16.99  17.00  17.42  17.42  17.42  18.59  18.59
         18.59  19.16  19.16  19.16  19.43  19.43  19.43  19.91  19.91  21.61
         28.79  28.79  28.79  29.76  29.76  29.81  29.81  29.81  56.40  56.40
         56.41  60.59  63.96  63.98  63.98  71.62  71.62  71.64  73.55  73.55
         92.91  92.91  92.94 105.47
   4  1 -15.65 -15.25 -15.25 -15.25 -12.56 -12.56 -12.56 -12.12  -7.52  -7.52
         -7.51  -7.08  -7.08  -7.08  -6.83  -6.83  -4.15  -3.65  -3.65  -3.65
         -2.30  -2.30  -2.30  -2.16  -2.16  -1.84  -1.83  -1.83   2.64   2.65
          2.65   3.09   3.93   3.93   4.01   4.02   4.02   4.97   5.32   5.32
          5.32   6.13   6.13   6.13   6.26   6.26   6.26   7.76   7.76   7.95
          7.95   7.95   8.74   8.74   8.74   8.75  15.91  15.91  15.91  16.01
         16.44  16.44  16.68  16.68  16.68  17.38  17.38  17.38  18.11  18.11
         18.11  18.98  18.99  18.99  19.44  19.44  19.44  20.09  20.09  22.01
         28.31  28.31  28.31  29.87  29.87  30.07  30.07  30.07  50.70  50.70
         50.71  56.02  60.54  60.55  60.55  71.95  71.95  71.96  72.82  72.82
         86.75  86.75  86.76 102.08
   5  1 -15.78 -15.23 -15.23 -15.23 -12.51 -12.51 -12.51 -11.90  -7.74  -7.74
         -7.74  -7.16  -7.16  -7.16  -6.80  -6.80  -4.12  -3.53  -3.53  -3.53
         -2.24  -2.24  -2.24  -2.14  -2.14  -1.67  -1.66  -1.66   2.27   2.27
          2.27   3.04   3.60   3.60   3.98   3.98   3.98   4.76   5.28   5.28
          5.28   6.26   6.26   6.26   6.36   6.36   6.36   8.21   8.21   8.21
          8.21   8.21   8.82   9.16   9.16   9.16  15.52  15.52  15.52  15.97
         16.06  16.06  16.33  16.33  16.33  17.29  17.29  17.29  17.89  17.89
         17.89  18.77  18.78  18.78  19.47  19.48  19.48  20.27  20.27  22.44
         27.74  27.74  27.74  30.01  30.01  30.41  30.41  30.42  45.72  45.72
         45.73  51.48  57.97  57.98  57.98  71.84  71.84  71.85  71.98  71.98
         83.11  83.11  83.12  99.10
   6  1 -15.91 -15.21 -15.21 -15.21 -12.45 -12.45 -12.45 -11.65  -7.97  -7.97
         -7.97  -7.25  -7.25  -7.25  -6.77  -6.77  -4.09  -3.49  -3.49  -3.49
         -2.12  -2.12  -2.10  -2.10  -2.10  -1.47  -1.47  -1.47   1.85   1.85
          1.85   2.94   3.29   3.29   4.01   4.01   4.01   4.59   5.25   5.25
[...]
         73.36  86.53  89.08  90.90
  93  1 -16.56 -15.88 -14.71 -14.36 -12.50 -12.11 -10.68  -9.94  -9.67  -9.62
         -8.56  -8.33  -8.11  -7.86  -7.60  -6.66  -3.53  -3.51  -3.03  -2.40
         -2.17  -1.88  -1.86  -1.06  -1.05  -0.87  -0.65  -0.53   0.45   0.46
          1.11   1.90   1.91   1.96   2.53   3.45   3.91   3.96   4.57   5.56
          5.65   5.66   7.46   7.80   8.19   8.45   8.89   9.24   9.46  10.13
         10.40  10.97  11.04  11.29  11.44  11.73  12.01  12.42  13.00  13.32
         14.08  14.27  14.51  14.60  14.67  15.67  16.14  16.40  16.45  17.14
         17.69  17.82  18.70  18.87  19.45  20.77  21.86  22.25  23.22  23.39
         23.78  23.97  24.75  25.14  26.40  26.55  32.85  37.55  38.88  41.01
         44.02  54.13  54.29  56.85  58.38  64.00  65.80  67.62  67.96  69.22
         73.32  86.53  89.08  90.93
  94  1 -16.35 -15.71 -14.78 -14.78 -12.43 -12.43 -11.38 -10.57  -9.17  -9.17
         -8.13  -7.84  -7.84  -7.52  -7.00  -6.97  -3.64  -3.42  -3.27  -3.27
         -2.32  -1.68  -1.68  -1.51  -1.39  -0.68  -0.53   0.32   0.32   0.45
          0.69   0.70   2.73   2.73   3.21   3.24   4.77   4.89   5.04   5.30
          5.38   5.38   6.42   6.42   7.22   8.12   8.76   9.14   9.14   9.16
          9.30   9.30  11.09  11.42  11.42  11.78  13.08  13.30  13.50  13.50
         13.61  14.74  15.01  15.01  16.19  16.19  16.65  16.67  17.25  17.45
         17.45  17.88  17.88  19.24  19.24  19.25  20.86  22.22  22.37  23.94
         24.55  24.55  25.38  27.34  28.05  28.05  32.57  33.44  36.36  36.36
         41.66  49.40  56.05  56.05  57.07  62.15  64.34  68.83  68.84  69.60
         81.61  86.74  86.75  94.74
  95  1 -15.95 -15.39 -15.39 -15.02 -12.47 -12.07 -12.07 -11.41  -8.69  -8.26
         -8.26  -7.54  -7.28  -7.24  -7.24  -6.68  -3.52  -3.48  -3.09  -3.09
         -2.39  -2.39  -2.03  -1.99  -1.55  -1.17  -1.04  -1.04   1.22   1.22
          2.02   2.21   2.40   3.04   3.43   3.87   3.87   4.24   4.24   4.48
          5.12   6.92   6.92   7.12   7.12   7.65   7.98   8.59   8.80   8.80
          8.93   9.22   9.29  10.08  10.51  10.51  13.84  14.08  14.08  15.08
         15.08  15.14  15.58  15.84  15.88  15.97  16.55  16.56  17.74  18.38
         18.45  18.45  19.05  19.05  19.40  19.87  20.56  20.56  21.25  21.91
         26.95  27.19  27.19  28.87  29.06  32.50  32.51  34.59  39.83  41.53
         41.54  48.11  55.59  55.61  58.23  59.37  64.84  76.66  76.66  80.98
         81.70  81.70  90.30  92.86
  96  1 -15.94 -15.39 -15.39 -15.02 -12.47 -12.06 -12.06 -11.42  -8.70  -8.27
         -8.26  -7.54  -7.28  -7.25  -7.24  -6.67  -3.52  -3.47  -3.09  -3.09
         -2.39  -2.39  -2.03  -1.99  -1.55  -1.18  -1.04  -1.04   1.22   1.22
          2.01   2.20   2.40   3.04   3.43   3.87   3.88   4.24   4.25   4.48
          5.11   6.92   6.93   7.12   7.12   7.64   7.99   8.60   8.78   8.79
          8.93   9.23   9.29  10.07  10.51  10.51  13.84  14.08  14.09  15.07
         15.08  15.13  15.58  15.82  15.87  15.97  16.57  16.57  17.73  18.40
         18.42  18.44  19.04  19.05  19.38  19.88  20.56  20.57  21.24  21.93
         26.94  27.17  27.19  28.91  29.06  32.49  32.51  34.57  39.86  41.53
         41.55  48.09  55.57  55.59  58.22  59.35  64.84  76.66  76.66  80.98
         81.72  81.77  90.31  92.96
  97  1 -15.94 -15.39 -15.39 -15.03 -12.46 -12.07 -12.06 -11.42  -8.70  -8.27
         -8.27  -7.54  -7.28  -7.24  -7.24  -6.68  -3.52  -3.48  -3.09  -3.09
         -2.39  -2.39  -2.02  -1.99  -1.55  -1.18  -1.05  -1.04   1.22   1.22
          2.01   2.20   2.41   3.05   3.43   3.88   3.88   4.24   4.24   4.48
          5.11   6.93   6.93   7.11   7.11   7.64   7.99   8.60   8.80   8.80
          8.91   9.22   9.30  10.07  10.51  10.51  13.83  14.08  14.08  15.06
         15.07  15.12  15.58  15.85  15.87  15.97  16.56  16.56  17.74  18.39
         18.44  18.44  19.05  19.05  19.39  19.85  20.55  20.55  21.25  21.91
         26.94  27.19  27.19  28.91  29.02  32.47  32.48  34.60  39.83  41.56
         41.56  48.10  55.58  55.60  58.30  59.32  64.82  76.65  76.66  81.03
         81.69  81.70  90.35  93.01
  98  1 -16.12 -15.49 -15.49 -14.96 -12.00 -11.37 -11.37 -10.57  -9.72  -9.22
         -9.22  -8.60  -7.41  -7.34  -7.34  -6.61  -3.63  -2.91  -2.68  -2.68
         -2.01  -2.01  -1.61  -1.43  -0.32  -0.32  -0.28  -0.14   0.22   0.22
          0.52   0.98   1.55   1.93   2.32   2.57   2.58   4.08   4.08   5.16
          5.75   7.66   7.66   7.96   8.54   8.54   9.35   9.54   9.76   9.88
          9.88  10.60  11.10  11.64  11.64  12.05  12.68  12.86  12.93  12.93
         13.53  13.72  13.72  14.50  14.99  15.23  15.24  15.48  17.58  18.41
         18.41  19.21  20.02  20.02  20.43  20.49  21.72  21.72  21.93  22.45
         25.39  25.99  26.18  26.18  27.94  35.99  35.99  41.10  44.63  44.63
         51.09  51.64  54.27  54.28  59.80  61.43  63.15  69.93  69.94  81.37
         81.37  82.53  84.99  87.92
  99  1 -16.12 -15.49 -15.49 -14.96 -12.00 -11.37 -11.37 -10.56  -9.72  -9.22
         -9.21  -8.60  -7.41  -7.34  -7.34  -6.61  -3.63  -2.91  -2.68  -2.68
         -2.02  -2.02  -1.61  -1.43  -0.32  -0.32  -0.28  -0.14   0.23   0.23
          0.52   0.98   1.55   1.93   2.32   2.57   2.57   4.08   4.08   5.16
          5.75   7.66   7.66   7.95   8.54   8.54   9.35   9.54   9.76   9.88
          9.88  10.58  11.09  11.65  11.65  12.05  12.69  12.86  12.92  12.92
         13.53  13.74  13.74  14.49  15.00  15.22  15.23  15.48  17.57  18.41
         18.41  19.21  20.02  20.02  20.44  20.49  21.72  21.72  21.93  22.44
         25.39  26.00  26.18  26.18  27.91  35.99  36.00  41.10  44.65  44.66
         51.08  51.64  54.28  54.29  59.75  61.49  63.15  69.90  69.91  81.37
         81.38  82.51  84.97  87.97
 100  1 -15.95 -15.39 -15.39 -15.02 -12.47 -12.07 -12.07 -11.41  -8.69  -8.26
         -8.26  -7.54  -7.28  -7.24  -7.24  -6.68  -3.52  -3.48  -3.09  -3.09
         -2.39  -2.39  -2.03  -1.99  -1.55  -1.17  -1.04  -1.04   1.22   1.22
          2.02   2.21   2.40   3.04   3.43   3.87   3.87   4.24   4.24   4.48
          5.12   6.92   6.92   7.12   7.12   7.65   7.98   8.59   8.80   8.80
          8.93   9.22   9.29  10.08  10.51  10.51  13.84  14.08  14.08  15.08
         15.08  15.14  15.58  15.84  15.88  15.97  16.55  16.56  17.74  18.38
         18.45  18.45  19.05  19.05  19.40  19.87  20.56  20.56  21.25  21.91
         26.95  27.19  27.19  28.87  29.06  32.50  32.51  34.59  39.83  41.53
         41.54  48.11  55.59  55.61  58.23  59.37  64.84  76.66  76.66  80.98
         81.70  81.70  90.30  92.86
 101  1 -15.62 -15.26 -15.26 -15.25 -12.57 -12.57 -12.57 -12.16  -7.48  -7.48
         -7.47  -7.07  -7.07  -7.07  -6.84  -6.84  -4.16  -3.68  -3.68  -3.68
         -2.31  -2.31  -2.31  -2.17  -2.17  -1.86  -1.86  -1.86   2.70   2.71
          2.71   3.10   4.00   4.00   4.03   4.03   4.03   5.02   5.32   5.32
          5.32   6.11   6.11   6.11   6.24   6.24   6.24   7.68   7.68   7.88
          7.89   7.89   8.68   8.68   8.68   8.73  15.97  15.97  15.97  16.03
         16.51  16.51  16.74  16.74  16.75  17.39  17.39  17.39  18.18  18.18
         18.18  19.02  19.02  19.02  19.43  19.44  19.44  20.06  20.06  21.94
         28.40  28.41  28.41  29.85  29.85  30.01  30.01  30.02  51.73  51.73
         51.74  56.89  61.12  61.13  61.13  71.91  71.91  71.93  72.96  72.96
         87.71  87.71  87.73 102.68
 102  1 -15.62 -15.26 -15.26 -15.25 -12.57 -12.57 -12.56 -12.17  -7.48  -7.48
         -7.48  -7.06  -7.06  -7.06  -6.84  -6.83  -4.16  -3.68  -3.68  -3.68
         -2.30  -2.30  -2.30  -2.17  -2.16  -1.87  -1.87  -1.87   2.70   2.71
          2.71   3.11   3.99   3.99   4.04   4.04   4.04   5.01   5.32   5.32
          5.33   6.10   6.11   6.12   6.24   6.24   6.25   7.67   7.68   7.88
          7.89   7.89   8.67   8.68   8.68   8.74  15.96  15.97  15.97  16.04
         16.50  16.50  16.74  16.74  16.75  17.40  17.40  17.40  18.17  18.17
         18.17  19.01  19.01  19.02  19.45  19.45  19.46  20.05  20.06  21.95
         28.38  28.39  28.39  29.85  29.88  30.00  30.02  30.02  51.70  51.78
         51.79  56.91  61.10  61.13  61.13  71.87  71.90  71.91  73.05  73.08
         87.68  87.69  87.71 102.69
 103  1 -15.94 -15.39 -15.39 -15.02 -12.47 -12.06 -12.06 -11.42  -8.70  -8.27
         -8.26  -7.54  -7.28  -7.25  -7.24  -6.67  -3.52  -3.47  -3.09  -3.09
         -2.39  -2.39  -2.03  -1.99  -1.55  -1.18  -1.04  -1.04   1.22   1.22
          2.01   2.20   2.40   3.04   3.43   3.87   3.88   4.24   4.25   4.48
          5.11   6.92   6.93   7.12   7.12   7.64   7.99   8.60   8.78   8.79
          8.93   9.23   9.29  10.07  10.51  10.51  13.84  14.08  14.09  15.07
         15.08  15.13  15.58  15.82  15.87  15.97  16.57  16.57  17.73  18.40
         18.42  18.44  19.04  19.05  19.38  19.88  20.56  20.57  21.24  21.93
         26.94  27.17  27.19  28.91  29.06  32.49  32.51  34.57  39.86  41.53
         41.55  48.09  55.57  55.59  58.22  59.35  64.84  76.66  76.66  80.98
         81.72  81.77  90.31  92.96
 104  1 -16.12 -15.50 -15.49 -14.96 -12.01 -11.37 -11.37 -10.57  -9.72  -9.22
         -9.21  -8.60  -7.40  -7.34  -7.34  -6.60  -3.63  -2.90  -2.68  -2.68
         -2.02  -2.01  -1.62  -1.43  -0.32  -0.32  -0.29  -0.14   0.22   0.23
          0.52   0.98   1.55   1.93   2.32   2.57   2.58   4.08   4.08   5.16
          5.74   7.67   7.67   7.97   8.53   8.54   9.36   9.54   9.77   9.88
          9.88  10.58  11.09  11.64  11.65  12.05  12.68  12.85  12.93  12.93
         13.53  13.74  13.74  14.48  14.99  15.24  15.25  15.48  17.58  18.39
         18.40  19.22  20.01  20.01  20.46  20.48  21.73  21.73  21.92  22.46
         25.38  26.01  26.17  26.18  27.93  35.98  36.00  41.13  44.63  44.66
         51.07  51.59  54.26  54.28  59.70  61.46  63.15  69.95  69.98  81.40
         81.42  82.48  84.96  87.90
 105  1 -16.12 -15.50 -15.49 -14.96 -12.01 -11.37 -11.37 -10.57  -9.72  -9.22
         -9.21  -8.60  -7.40  -7.34  -7.34  -6.60  -3.63  -2.90  -2.68  -2.68
         -2.02  -2.01  -1.62  -1.43  -0.32  -0.32  -0.29  -0.14   0.22   0.23
          0.52   0.98   1.55   1.93   2.32   2.57   2.58   4.08   4.08   5.16
          5.74   7.67   7.67   7.97   8.53   8.54   9.36   9.54   9.77   9.88
          9.88  10.58  11.09  11.64  11.65  12.05  12.68  12.85  12.93  12.93
         13.53  13.74  13.74  14.48  14.99  15.24  15.25  15.48  17.58  18.39
         18.40  19.22  20.01  20.01  20.46  20.48  21.73  21.73  21.92  22.46
         25.38  26.01  26.17  26.18  27.93  35.98  36.00  41.13  44.63  44.66
         51.07  51.59  54.26  54.28  59.70  61.46  63.15  69.95  69.98  81.40
         81.42  82.48  84.96  87.90
 106  1 -15.94 -15.39 -15.39 -15.02 -12.47 -12.06 -12.06 -11.42  -8.70  -8.27
         -8.26  -7.54  -7.28  -7.25  -7.24  -6.67  -3.52  -3.47  -3.09  -3.09
         -2.39  -2.39  -2.03  -1.99  -1.55  -1.18  -1.04  -1.04   1.22   1.22
          2.01   2.20   2.40   3.04   3.43   3.87   3.88   4.24   4.25   4.48
          5.11   6.92   6.93   7.12   7.12   7.64   7.99   8.60   8.78   8.79
          8.93   9.23   9.29  10.07  10.51  10.51  13.84  14.08  14.09  15.07
         15.08  15.13  15.58  15.82  15.87  15.97  16.57  16.57  17.73  18.40
         18.42  18.44  19.04  19.05  19.38  19.88  20.56  20.57  21.24  21.93
         26.94  27.17  27.19  28.91  29.06  32.49  32.51  34.57  39.86  41.53
         41.55  48.09  55.57  55.59  58.22  59.35  64.84  76.66  76.66  80.98
         81.72  81.77  90.31  92.96
 107  1 -15.62 -15.26 -15.26 -15.25 -12.57 -12.57 -12.56 -12.17  -7.48  -7.48
         -7.48  -7.06  -7.06  -7.06  -6.84  -6.83  -4.16  -3.68  -3.68  -3.68
         -2.30  -2.30  -2.30  -2.17  -2.16  -1.87  -1.87  -1.87   2.70   2.71
          2.71   3.11   3.99   3.99   4.04   4.04   4.04   5.01   5.32   5.32
          5.33   6.10   6.11   6.12   6.24   6.24   6.25   7.67   7.68   7.88
          7.89   7.89   8.67   8.68   8.68   8.74  15.96  15.97  15.97  16.04
         16.50  16.50  16.74  16.74  16.75  17.40  17.40  17.40  18.17  18.17
         18.17  19.01  19.01  19.02  19.45  19.45  19.46  20.05  20.06  21.95
         28.38  28.39  28.39  29.85  29.88  30.00  30.02  30.02  51.70  51.78
         51.79  56.91  61.10  61.13  61.13  71.87  71.90  71.91  73.05  73.08
         87.68  87.69  87.71 102.69
 108  1 -15.62 -15.26 -15.26 -15.25 -12.57 -12.57 -12.56 -12.17  -7.48  -7.48
         -7.48  -7.06  -7.06  -7.06  -6.84  -6.83  -4.16  -3.68  -3.68  -3.68
         -2.30  -2.30  -2.30  -2.17  -2.16  -1.87  -1.87  -1.87   2.70   2.71
          2.71   3.11   3.99   3.99   4.04   4.04   4.04   5.01   5.32   5.32
          5.33   6.10   6.11   6.12   6.24   6.24   6.25   7.67   7.68   7.88
          7.89   7.89   8.67   8.68   8.68   8.74  15.96  15.97  15.97  16.04
         16.50  16.50  16.74  16.74  16.75  17.40  17.40  17.40  18.17  18.17
         18.17  19.01  19.01  19.02  19.45  19.45  19.46  20.05  20.06  21.95
         28.38  28.39  28.39  29.85  29.88  30.00  30.02  30.02  51.70  51.78
         51.79  56.91  61.10  61.13  61.13  71.87  71.90  71.91  73.05  73.08
         87.68  87.69  87.71 102.69
siesta: Fermi energy =      -5.333152 eV

siesta: Program's energy decomposition (eV):
siesta: Ebs     =      -343.927528
siesta: Eions   =      1510.441798
siesta: Ena     =       465.404653
siesta: Ekin    =       324.856028
siesta: Enl     =       110.970783
siesta: DEna    =         5.183145
siesta: DUscf   =         1.524114
siesta: DUext   =         0.000000
siesta: Exc     =      -259.468155
siesta: eta*DQ  =         0.000000
siesta: Emadel  =         0.000000
siesta: Emeta   =         0.000000
siesta: Emolmec =         0.000000
siesta: Ekinion =         0.000000
siesta: Eharris =      -861.971835
siesta: Etot    =      -861.971231
siesta: FreeEng =      -861.971231

siesta: Final energy (eV):
siesta:  Band Struct. =    -343.927528
siesta:       Kinetic =     324.856028
siesta:       Hartree =      57.946671
siesta:    Ext. field =       0.000000
siesta:   Exch.-corr. =    -259.468155
siesta:  Ion-electron =    -446.358782
siesta:       Ion-ion =    -538.946993
siesta:       Ekinion =       0.000000
siesta:         Total =    -861.971231

siesta: Stress tensor (static) (eV/Ang**3):
siesta:     0.000787    0.000133    0.000133
siesta:     0.000133    0.000787    0.000133
siesta:     0.000133    0.000133    0.000787

siesta: Constrained stress tensor (static) (eV/Ang**3):
siesta:     0.000787    0.000133    0.000133
siesta:     0.000133    0.000787    0.000133
siesta:     0.000133    0.000133    0.000787

siesta: Cell volume =        161.452069 Ang**3

siesta: Pressure (static):
siesta:                Solid            Molecule  Units
siesta:          -0.00000857          0.00000017  Ry/Bohr**3
siesta:          -0.00078706          0.00001535  eV/Ang**3
siesta:          -1.26102761          0.02458915  kBar
(Free)E+ p_basis*V_orbitals  =        -852.997628
(Free)Eharris+ p_basis*V_orbitals  =        -852.998873

* Maximum dynamic memory allocated : Node    0 =    88 MB

* Maximum memory occured during init_pulay_arrrays            

timer: CPU execution times:
timer:  Routine       Calls   Time/call    Tot.time        %
timer:  siesta            1    1143.479    1143.479   100.00
timer:  Setup             1       0.112       0.112     0.01
timer:  bands             3       0.553       1.660     0.15
timer:  writewave         3       0.005       0.016     0.00
timer:  KSV_init          1       0.000       0.000     0.00
timer:  IterMD           12      95.132    1141.587    99.83
timer:  hsparse          12       0.192       2.304     0.20
timer:  overlap          12       0.123       1.472     0.13
timer:  IterSCF          66      14.440     953.012    83.34
timer:  kinefsm          24       0.121       2.904     0.25
timer:  nlefsm           24       4.006      96.138     8.41
timer:  DHSCF            78       8.095     631.395    55.22
timer:  DHSCF1           12       0.046       0.556     0.05
timer:  DHSCF2           12       2.096      25.153     2.20
timer:  REORD           492       0.000       0.028     0.00
timer:  POISON           90       0.005       0.420     0.04
timer:  DHSCF3           78       7.175     559.635    48.94
timer:  rhoofd           78       3.295     256.996    22.47
timer:  cellXC           78       0.013       1.036     0.09
timer:  vmat             78       3.861     301.151    26.34
timer:  MolMec           24       0.000       0.000     0.00
timer:  diagon           66       6.106     402.974    35.24
timer:  c-eigval       7229       0.017     119.372    10.44
timer:  c-buildHS      7229       0.012      85.727     7.50
timer:  cdiag         14358       0.007     101.906     8.91
timer:  cdiag1        14358       0.001       7.521     0.66
timer:  cdiag2        14358       0.002      26.707     2.34
timer:  cdiag3        14358       0.005      65.407     5.72
timer:  cdiag4        14358       0.000       1.819     0.16
timer:  c-eigvec       7129       0.021     152.818    13.36
timer:  c-buildD       7128       0.018     131.712    11.52
timer:  DHSCF4           12       3.836      46.027     4.03
timer:  dfscf            12       3.676      44.111     3.86
timer:  overfsm          12       0.117       1.408     0.12
timer:  optical           1       0.000       0.000     0.00
  

elaps: ELAPSED times:
elaps:  Routine       Calls   Time/call    Tot.time        %
elaps:  siesta            1    1150.475    1150.475   100.00
elaps:  Setup             1       0.112       0.112     0.01
elaps:  bands             3       0.555       1.665     0.14
elaps:  writewave         3       0.006       0.019     0.00
elaps:  KSV_init          1       0.000       0.000     0.00
elaps:  IterMD           12      95.715    1148.580    99.84
elaps:  hsparse          12       0.193       2.311     0.20
elaps:  overlap          12       0.123       1.476     0.13
elaps:  IterSCF          66      14.529     958.930    83.35
elaps:  kinefsm          24       0.122       2.917     0.25
elaps:  nlefsm           24       4.029      96.686     8.40
elaps:  DHSCF            78       8.147     635.438    55.23
elaps:  DHSCF1           12       0.047       0.559     0.05
elaps:  DHSCF2           12       2.104      25.243     2.19
elaps:  REORD           492       0.000       0.043     0.00
elaps:  POISON           90       0.005       0.438     0.04
elaps:  DHSCF3           78       7.220     563.183    48.95
elaps:  rhoofd           78       3.313     258.430    22.46
elaps:  cellXC           78       0.013       1.019     0.09
elaps:  vmat             78       3.888     303.242    26.36
elaps:  MolMec           24       0.000       0.000     0.00
elaps:  diagon           66       6.141     405.307    35.23
elaps:  c-eigval       7229       0.017     120.120    10.44
elaps:  c-buildHS      7229       0.012      86.315     7.50
elaps:  cdiag         14358       0.007     102.669     8.92
elaps:  cdiag1        14358       0.001       7.585     0.66
elaps:  cdiag2        14358       0.002      26.927     2.34
elaps:  cdiag3        14358       0.005      65.841     5.72
elaps:  cdiag4        14358       0.000       1.929     0.17
elaps:  c-eigvec       7129       0.022     153.917    13.38
elaps:  c-buildD       7128       0.019     132.301    11.50
elaps:  DHSCF4           12       3.869      46.422     4.04
elaps:  dfscf            12       3.708      44.500     3.87
elaps:  overfsm          12       0.119       1.423     0.12
elaps:  optical           1       0.000       0.000     0.00
  
>> End of run:   9-MAY-2013  17:34:13

=====================================================================================
=   BAD TERMINATION OF ONE OF YOUR APPLICATION PROCESSES
=   EXIT CODE: 134
=   CLEANING UP REMAINING PROCESSES
=   YOU CAN IGNORE THE BELOW CLEANUP MESSAGES
=====================================================================================
APPLICATION TERMINATED WITH THE EXIT STRING: Aborted (signal 6)
