Siesta Version:                                        siesta-3.2
Architecture  : x86_64-unknown-linux-gnu--unknown
Compiler flags: f95 -g -O2
Siesta Version:                                        siesta-3.2
Architecture  : x86_64-unknown-linux-gnu--unknown
Compiler flags: f95 -g -O2
SERIAL version

* Running in serial mode
SERIAL version

* Running in serial mode
>> Start of run:  27-APR-2013  16:12:22
>> Start of run:  27-APR-2013  16:12:22

                           ***********************       
                           *  WELCOME TO SIESTA  *       
                           ***********************       

reinit: Reading from standard input
************************** Dump of input data file ****************************
# FDF for Adenine +  Thymine   coupled system
#Modify all the lines which contains "?", "xctype".
SystemName             ade_thy        # Descriptive name of the system
SystemLabel            ade_thy_lda.DZP         # Short name for naming files
NumberOfSpecies        4           # Number of species
NumberOfAtoms          30           # Number of atoms
##Xc flavour##
XC.functional          LDA	    # Local Density Approximation
XC.authors             CA           # Ceperley-Alder
##Output specs##
SaveHS                 true
SaveRho                true
LongOutput             true
WriteCoorXmol          true
WriteMDhistory         true         # Trajectory information
WriteCoorStep          true
WriteCoorXmol          true
WriteMDXmol            true
%block  Chemical_Species_label
       1  6   C
       2  1   H
       3  7   N
       4  8   O
%endblock Chemical_Species_label
SpinPolarized     false
MeshCutoff	       150. Ry        # Mesh cutoff. real space mesh (Ry)
DM.MixingWeight       0.1          # New DM amount for next SCF cycle
DM.Tolerance          1.d-4         # Tolerance in maximum difference
                                    # between input and output DM
DM.NumberPulay         4
NeglNonOverlapInt     false         # Neglect non-overlap interactions
SolutionMethod        diagon        # OrderN or Diagon
ElectronicTemperature 300 K         # Temp. for Fermi smearing (Ry)
##Minimization_strategy
MD.TypeOfRun           CG           # Type of dynamics:
MD.NumCGsteps          100            # Number of CG steps for
                                    #   coordinate optimization
MD.MaxCGDispl          0.2 Bohr     # Maximum atomic displacement
                                    #   in one CG step (Bohr)
MD.MaxForceTol         0.04 eV/Ang  # Tolerance in the maximum
                                    #   atomic force (Ry/Bohr)
#Basis_defenition
PAO.BasisType    split
PAO.BasisSize    DZP
PAO.EnergyShift         50.0 meV
PAO.SplitNorm           0.20
PAO.SplitNormH          0.35
AtomicCoordinatesFormat    NotScaledCartesianAng    # Format for coordinates
%block AtomicCoordinatesAndAtomicSpecies
   -5.71577300    3.86159700    2.98066100   3       1  N
   -7.82491800    4.65816100    3.20738700   3       2  N
  -10.08940800    2.75224100    4.11445600   3       3  N
   -8.41114600    1.11363800    4.21799200   3       4  N
   -6.08800800    1.51434000    3.64223200   3       5  N
   -6.57938300    4.95247400    2.88418300   1       6  C
   -7.78342500    3.30380500    3.53372300   1       7  C
   -8.78933000    2.39528500    3.96027000   1       8  C
   -7.11385100    0.75085300    4.05436900   1       9  C
   -6.48188600    2.78135100    3.40090900   1      10  C
   -4.72669700    3.84190500    2.77729100   2      11  H
   -6.22481400    5.92598000    2.57648000   2      12  H
  -10.77699500    2.08872200    4.47897600   2      13  H
  -10.35085700    3.71191900    3.94492000   2      14  H
   -6.89534700   -0.28660500    4.29948200   2      15  H
   -8.41189000   -2.24992300    5.55618400   4      16  O
  -11.94568700    0.70198200    5.24514900   4      17  O
  -10.49736200   -2.91266200    6.30384000   3      18  N
  -10.19969100   -0.78837900    5.38538500   3      19  N
   -9.59818700   -1.99432900    5.72904100   1      20  C
  -11.54330400   -0.42832600    5.56844500   1      21  C
  -12.41257200   -1.46069700    6.15684900   1      22  C
  -13.88017400   -1.14128600    6.33954300   1      23  C
  -11.84435500   -2.65173900    6.50391500   1      24  C
   -9.56387400   -0.07912000    4.94821600   2      25  H
  -10.09175500   -3.79860500    6.57158300   2      26  H
  -12.41176100   -3.45776300    6.95794300   2      27  H
  -14.41443600   -1.98537400    6.78781100   2      28  H
  -14.00919700   -0.25744600    6.97583700   2      29  H
  -14.34340900   -0.90187100    5.37414300   2      30  H
%endblock AtomicCoordinatesAndAtomicSpecies
## Simulation restart parameters ##
#DM.UseSaveDM   true
#MD.UseSaveXV   true
#MD.UseSaveCG   true
************************** End of input data file *****************************

reinit: -----------------------------------------------------------------------
reinit: System Name: ade_thy
reinit: -----------------------------------------------------------------------
reinit: System Label: ade_thy_lda.DZP                                             
reinit: -----------------------------------------------------------------------

                           ***********************       
                           *  WELCOME TO SIESTA  *       
                           ***********************       

reinit: Reading from standard input
************************** Dump of input data file ****************************
************************** End of input data file *****************************

reinit: -----------------------------------------------------------------------
reinit: System Name: 
reinit: -----------------------------------------------------------------------
reinit: System Label: siesta                                                      
reinit: -----------------------------------------------------------------------

initatom: Reading input for the pseudopotentials and atomic orbitals ----------
No species found!!!
ERROR STOP from Node:    0

initatom: Reading input for the pseudopotentials and atomic orbitals ----------
 Species number:            1  Label: C Atomic number:           6
 Species number:            2  Label: H Atomic number:           1
 Species number:            3  Label: N Atomic number:           7
 Species number:            4  Label: O Atomic number:           8
Ground state valence configuration:   2s02  2p02
Reading pseudopotential information in formatted form from C.psf

Valence configuration for pseudopotential generation:
2s( 2.00) rc: 1.54
2p( 2.00) rc: 1.54
3d( 0.00) rc: 1.54
4f( 0.00) rc: 1.54
Ground state valence configuration:   1s01
Reading pseudopotential information in formatted form from H.psf

Valence configuration for pseudopotential generation:
1s( 1.00) rc: 1.31
2p( 0.00) rc: 1.31
3d( 0.00) rc: 0.37
4f( 0.00) rc: 1.31
Ground state valence configuration:   2s02  2p03
Reading pseudopotential information in formatted form from N.psf

Valence configuration for pseudopotential generation:
2s( 2.00) rc: 1.48
2p( 3.00) rc: 1.48
3d( 0.00) rc: 1.48
4f( 0.00) rc: 1.48
Ground state valence configuration:   2s02  2p04
Reading pseudopotential information in formatted form from O.psf

Valence configuration for pseudopotential generation:
2s( 2.00) rc: 1.47
2p( 4.00) rc: 1.47
3d( 0.00) rc: 1.47
4f( 0.00) rc: 1.47
For C, standard SIESTA heuristics set lmxkb to 3
 (one more than the basis l, including polarization orbitals).
Use PS.lmax or PS.KBprojectors blocks to override.
For H, standard SIESTA heuristics set lmxkb to 2
 (one more than the basis l, including polarization orbitals).
Use PS.lmax or PS.KBprojectors blocks to override.
For N, standard SIESTA heuristics set lmxkb to 3
 (one more than the basis l, including polarization orbitals).
Use PS.lmax or PS.KBprojectors blocks to override.
For O, standard SIESTA heuristics set lmxkb to 3
 (one more than the basis l, including polarization orbitals).
Use PS.lmax or PS.KBprojectors blocks to override.

<basis_specs>
===============================================================================
C                    Z=   6    Mass=  12.010        Charge= 0.17977+309
Lmxo=1 Lmxkb= 3    BasisType=split      Semic=F
L=0  Nsemic=0  Cnfigmx=2
          n=1  nzeta=2  polorb=0
            splnorm:   0.20000    
               vcte:    0.0000    
               rinn:    0.0000    
                rcs:    0.0000      0.0000    
            lambdas:    1.0000      1.0000    
L=1  Nsemic=0  Cnfigmx=2
          n=1  nzeta=2  polorb=1
            splnorm:   0.20000    
               vcte:    0.0000    
               rinn:    0.0000    
                rcs:    0.0000      0.0000    
            lambdas:    1.0000      1.0000    
-------------------------------------------------------------------------------
L=0  Nkbl=1  erefs: 0.17977+309
L=1  Nkbl=1  erefs: 0.17977+309
L=2  Nkbl=1  erefs: 0.17977+309
L=3  Nkbl=1  erefs: 0.17977+309
===============================================================================
</basis_specs>

atom: Called for C                     (Z =   6)

read_vps: Pseudopotential generation method:
read_vps: ATM3      Troullier-Martins                       
Total valence charge:    4.00000

xc_check: Exchange-correlation functional:
xc_check: Ceperley-Alder
V l=0 = -2*Zval/r beyond r=  1.5227
V l=1 = -2*Zval/r beyond r=  1.5227
V l=2 = -2*Zval/r beyond r=  1.5227
V l=3 = -2*Zval/r beyond r=  1.5038
All V_l potentials equal beyond r=  1.5227
This should be close to max(r_c) in ps generation
All pots = -2*Zval/r beyond r=  1.5227

VLOCAL1: 99.0% of the norm of Vloc inside     18.722 Ry
VLOCAL1: 99.9% of the norm of Vloc inside     42.668 Ry
atom: Maximum radius for 4*pi*r*r*local-pseudopot. charge    1.83678
atom: Maximum radius for r*vlocal+2*Zval:    1.58088
GHOST: No ghost state for L =  0
GHOST: No ghost state for L =  1
GHOST: No ghost state for L =  2
GHOST: No ghost state for L =  3

KBgen: Kleinman-Bylander projectors: 
   l= 0   rc=  1.747182   el= -1.001948   Ekb=  4.950286   kbcos=  0.319819
   l= 1   rc=  1.747182   el= -0.398598   Ekb= -4.108613   kbcos= -0.367053
   l= 2   rc=  1.930978   el=  0.002326   Ekb= -1.042946   kbcos= -0.009366
   l= 3   rc=  2.055542   el=  0.003420   Ekb= -0.408633   kbcos= -0.001262

KBgen: Total number of  Kleinman-Bylander projectors:   16
atom: -------------------------------------------------------------------------

atom: SANKEY-TYPE ORBITALS:
atom: Selected multiple-zeta basis: split     

SPLIT: Orbitals with angular momentum L= 0

SPLIT: Basis orbitals for state 2s

SPLIT: PAO cut-off radius determined from an
SPLIT: energy shift=  0.003675 Ry

   izeta = 1
                 lambda =    1.000000
                     rc =    5.120028
                 energy =   -0.998767
                kinetic =    0.821771
    potential(screened) =   -1.820539
       potential(ionic) =   -5.388409

   izeta = 2
                 rmatch =    3.305592
              splitnorm =    0.200000
                 energy =   -0.824179
                kinetic =    1.354906
    potential(screened) =   -2.179085
       potential(ionic) =   -6.044486

SPLIT: Orbitals with angular momentum L= 1

SPLIT: Basis orbitals for state 2p

SPLIT: PAO cut-off radius determined from an
SPLIT: energy shift=  0.003675 Ry

   izeta = 1
                 lambda =    1.000000
                     rc =    6.253707
                 energy =   -0.395148
                kinetic =    2.370497
    potential(screened) =   -2.765644
       potential(ionic) =   -6.191332

   izeta = 2
                 rmatch =    3.431921
              splitnorm =    0.200000
                 energy =   -0.205097
                kinetic =    3.865625
    potential(screened) =   -4.070722
       potential(ionic) =   -7.971885

POLgen: Perturbative polarization orbital with L=  2

POLgen: Polarization orbital for state 2p

   izeta = 1
                     rc =    6.253707
                 energy =    1.011794
                kinetic =    2.139817
    potential(screened) =   -1.128023
       potential(ionic) =   -3.866082
atom: Total number of Sankey-type orbitals: 13

atm_pop: Valence configuration (for local Pseudopot. screening):
 2s( 2.00)                                                            
 2p( 2.00)                                                            
Vna: chval, zval:    4.00000   4.00000

Vna:  Cut-off radius for the neutral-atom potential:   6.253707

atom: _________________________________________________________________________

<basis_specs>
===============================================================================
H                    Z=   1    Mass=  1.0100        Charge= 0.17977+309
Lmxo=0 Lmxkb= 2    BasisType=split      Semic=F
L=0  Nsemic=0  Cnfigmx=1
          n=1  nzeta=2  polorb=1
            splnorm:   0.35000    
               vcte:    0.0000    
               rinn:    0.0000    
                rcs:    0.0000      0.0000    
            lambdas:    1.0000      1.0000    
-------------------------------------------------------------------------------
L=0  Nkbl=1  erefs: 0.17977+309
L=1  Nkbl=1  erefs: 0.17977+309
L=2  Nkbl=1  erefs: 0.17977+309
===============================================================================
</basis_specs>

atom: Called for H                     (Z =   1)

read_vps: Pseudopotential generation method:
read_vps: ATM3      Troullier-Martins                       
Total valence charge:    1.00000

xc_check: Exchange-correlation functional:
xc_check: Ceperley-Alder
V l=0 = -2*Zval/r beyond r=  1.2977
V l=1 = -2*Zval/r beyond r=  1.2815
V l=2 = -2*Zval/r beyond r=  1.1307
All V_l potentials equal beyond r=  1.2977
This should be close to max(r_c) in ps generation
All pots = -2*Zval/r beyond r=  1.2977

VLOCAL1: 99.0% of the norm of Vloc inside     25.776 Ry
VLOCAL1: 99.9% of the norm of Vloc inside     58.745 Ry
atom: Maximum radius for 4*pi*r*r*local-pseudopot. charge    1.52711
atom: Maximum radius for r*vlocal+2*Zval:    1.28155
GHOST: No ghost state for L =  0
GHOST: No ghost state for L =  1
GHOST: No ghost state for L =  2

KBgen: Kleinman-Bylander projectors: 
   l= 0   rc=  1.434438   el= -0.467325   Ekb= -1.940326   kbcos= -0.353040
   l= 1   rc=  1.508111   el=  0.001430   Ekb= -0.480826   kbcos= -0.024144
   l= 2   rc=  1.527112   el=  0.002365   Ekb= -0.479392   kbcos= -0.001656

KBgen: Total number of  Kleinman-Bylander projectors:    9
atom: -------------------------------------------------------------------------

atom: SANKEY-TYPE ORBITALS:
atom: Selected multiple-zeta basis: split     

SPLIT: Orbitals with angular momentum L= 0

SPLIT: Basis orbitals for state 1s

SPLIT: PAO cut-off radius determined from an
SPLIT: energy shift=  0.003675 Ry

   izeta = 1
                 lambda =    1.000000
                     rc =    6.047169
                 energy =   -0.463576
                kinetic =    0.850090
    potential(screened) =   -1.313666
       potential(ionic) =   -1.841630

   izeta = 2
                 rmatch =    3.077738
              splitnorm =    0.350000
                 energy =   -0.176106
                kinetic =    1.946102
    potential(screened) =   -2.122208
       potential(ionic) =   -2.708586

POLgen: Perturbative polarization orbital with L=  1

POLgen: Polarization orbital for state 1s

   izeta = 1
                     rc =    6.047169
                 energy =    0.538628
                kinetic =    1.146585
    potential(screened) =   -0.607956
       potential(ionic) =   -1.068849
atom: Total number of Sankey-type orbitals:  5

atm_pop: Valence configuration (for local Pseudopot. screening):
 1s( 1.00)                                                            
Vna: chval, zval:    1.00000   1.00000

Vna:  Cut-off radius for the neutral-atom potential:   6.047169

atom: _________________________________________________________________________

<basis_specs>
===============================================================================
N                    Z=   7    Mass=  14.010        Charge= 0.17977+309
Lmxo=1 Lmxkb= 3    BasisType=split      Semic=F
L=0  Nsemic=0  Cnfigmx=2
          n=1  nzeta=2  polorb=0
            splnorm:   0.20000    
               vcte:    0.0000    
               rinn:    0.0000    
                rcs:    0.0000      0.0000    
            lambdas:    1.0000      1.0000    
L=1  Nsemic=0  Cnfigmx=2
          n=1  nzeta=2  polorb=1
            splnorm:   0.20000    
               vcte:    0.0000    
               rinn:    0.0000    
                rcs:    0.0000      0.0000    
            lambdas:    1.0000      1.0000    
-------------------------------------------------------------------------------
L=0  Nkbl=1  erefs: 0.17977+309
L=1  Nkbl=1  erefs: 0.17977+309
L=2  Nkbl=1  erefs: 0.17977+309
L=3  Nkbl=1  erefs: 0.17977+309
===============================================================================
</basis_specs>

atom: Called for N                     (Z =   7)

read_vps: Pseudopotential generation method:
read_vps: ATM3      Troullier-Martins                       
Total valence charge:    5.00000

xc_check: Exchange-correlation functional:
xc_check: Ceperley-Alder
V l=0 = -2*Zval/r beyond r=  1.4606
V l=1 = -2*Zval/r beyond r=  1.4606
V l=2 = -2*Zval/r beyond r=  1.4606
V l=3 = -2*Zval/r beyond r=  1.4606
All V_l potentials equal beyond r=  1.4606
This should be close to max(r_c) in ps generation
All pots = -2*Zval/r beyond r=  1.4606

VLOCAL1: 99.0% of the norm of Vloc inside     20.347 Ry
VLOCAL1: 99.9% of the norm of Vloc inside     46.372 Ry
atom: Maximum radius for 4*pi*r*r*local-pseudopot. charge    1.76189
atom: Maximum radius for r*vlocal+2*Zval:    1.53550
GHOST: No ghost state for L =  0
GHOST: No ghost state for L =  1
GHOST: No ghost state for L =  2
GHOST: No ghost state for L =  3

KBgen: Kleinman-Bylander projectors: 
   l= 0   rc=  1.634559   el= -1.352239   Ekb=  4.901185   kbcos=  0.337501
   l= 1   rc=  1.614250   el= -0.532623   Ekb= -5.544141   kbcos= -0.433040
   l= 2   rc=  1.740002   el=  0.002346   Ekb= -1.331777   kbcos= -0.007563
   l= 3   rc=  1.806505   el=  0.003449   Ekb= -0.515466   kbcos= -0.000994

KBgen: Total number of  Kleinman-Bylander projectors:   16
atom: -------------------------------------------------------------------------

atom: SANKEY-TYPE ORBITALS:
atom: Selected multiple-zeta basis: split     

SPLIT: Orbitals with angular momentum L= 0

SPLIT: Basis orbitals for state 2s

SPLIT: PAO cut-off radius determined from an
SPLIT: energy shift=  0.003675 Ry

   izeta = 1
                 lambda =    1.000000
                     rc =    4.499702
                 energy =   -1.349164
                kinetic =    1.137567
    potential(screened) =   -2.486730
       potential(ionic) =   -8.018725

   izeta = 2
                 rmatch =    2.763400
              splitnorm =    0.200000
                 energy =   -1.081218
                kinetic =    1.918006
    potential(screened) =   -2.999224
       potential(ionic) =   -9.043593

SPLIT: Orbitals with angular momentum L= 1

SPLIT: Basis orbitals for state 2p

SPLIT: PAO cut-off radius determined from an
SPLIT: energy shift=  0.003675 Ry

   izeta = 1
                 lambda =    1.000000
                     rc =    5.496027
                 energy =   -0.529223
                kinetic =    3.403635
    potential(screened) =   -3.932858
       potential(ionic) =   -9.260801

   izeta = 2
                 rmatch =    2.833365
              splitnorm =    0.200000
                 energy =   -0.250789
                kinetic =    5.562802
    potential(screened) =   -5.813592
       potential(ionic) =  -11.904858

POLgen: Perturbative polarization orbital with L=  2

POLgen: Polarization orbital for state 2p

   izeta = 1
                     rc =    5.496027
                 energy =    1.482192
                kinetic =    3.055334
    potential(screened) =   -1.573142
       potential(ionic) =   -5.768774
atom: Total number of Sankey-type orbitals: 13

atm_pop: Valence configuration (for local Pseudopot. screening):
 2s( 2.00)                                                            
 2p( 3.00)                                                            
Vna: chval, zval:    5.00000   5.00000

Vna:  Cut-off radius for the neutral-atom potential:   5.496027

atom: _________________________________________________________________________

<basis_specs>
===============================================================================
O                    Z=   8    Mass=  16.000        Charge= 0.17977+309
Lmxo=1 Lmxkb= 3    BasisType=split      Semic=F
L=0  Nsemic=0  Cnfigmx=2
          n=1  nzeta=2  polorb=0
            splnorm:   0.20000    
               vcte:    0.0000    
               rinn:    0.0000    
                rcs:    0.0000      0.0000    
            lambdas:    1.0000      1.0000    
L=1  Nsemic=0  Cnfigmx=2
          n=1  nzeta=2  polorb=1
            splnorm:   0.20000    
               vcte:    0.0000    
               rinn:    0.0000    
                rcs:    0.0000      0.0000    
            lambdas:    1.0000      1.0000    
-------------------------------------------------------------------------------
L=0  Nkbl=1  erefs: 0.17977+309
L=1  Nkbl=1  erefs: 0.17977+309
L=2  Nkbl=1  erefs: 0.17977+309
L=3  Nkbl=1  erefs: 0.17977+309
===============================================================================
</basis_specs>

atom: Called for O                     (Z =   8)

read_vps: Pseudopotential generation method:
read_vps: ATM3      Troullier-Martins                       
Total valence charge:    6.00000

xc_check: Exchange-correlation functional:
xc_check: Ceperley-Alder
V l=0 = -2*Zval/r beyond r=  1.4482
V l=1 = -2*Zval/r beyond r=  1.4482
V l=2 = -2*Zval/r beyond r=  1.4482
V l=3 = -2*Zval/r beyond r=  1.4482
All V_l potentials equal beyond r=  1.4482
This should be close to max(r_c) in ps generation
All pots = -2*Zval/r beyond r=  1.4482

VLOCAL1: 99.0% of the norm of Vloc inside     20.696 Ry
VLOCAL1: 99.9% of the norm of Vloc inside     47.167 Ry
atom: Maximum radius for 4*pi*r*r*local-pseudopot. charge    1.74697
atom: Maximum radius for r*vlocal+2*Zval:    1.52250
GHOST: No ghost state for L =  0
GHOST: No ghost state for L =  1
GHOST: No ghost state for L =  2
GHOST: No ghost state for L =  3

KBgen: Kleinman-Bylander projectors: 
   l= 0   rc=  1.620715   el= -1.742414   Ekb=  4.456556   kbcos=  0.290194
   l= 1   rc=  1.600578   el= -0.676589   Ekb= -7.144994   kbcos= -0.499132
   l= 2   rc=  1.703827   el=  0.002386   Ekb= -1.602359   kbcos= -0.006666
   l= 3   rc=  1.746967   el=  0.003508   Ekb= -0.610601   kbcos= -0.000909

KBgen: Total number of  Kleinman-Bylander projectors:   16
atom: -------------------------------------------------------------------------

atom: SANKEY-TYPE ORBITALS:
atom: Selected multiple-zeta basis: split     

SPLIT: Orbitals with angular momentum L= 0

SPLIT: Basis orbitals for state 2s

SPLIT: PAO cut-off radius determined from an
SPLIT: energy shift=  0.003675 Ry

   izeta = 1
                 lambda =    1.000000
                     rc =    3.937239
                 energy =   -1.738596
                kinetic =    1.517059
    potential(screened) =   -3.255654
       potential(ionic) =  -11.171179

   izeta = 2
                 rmatch =    2.387934
              splitnorm =    0.200000
                 energy =   -1.383982
                kinetic =    2.555733
    potential(screened) =   -3.939715
       potential(ionic) =  -12.622622

SPLIT: Orbitals with angular momentum L= 1

SPLIT: Basis orbitals for state 2p

SPLIT: PAO cut-off radius determined from an
SPLIT: energy shift=  0.003675 Ry

   izeta = 1
                 lambda =    1.000000
                     rc =    4.930772
                 energy =   -0.673208
                kinetic =    4.511194
    potential(screened) =   -5.184402
       potential(ionic) =  -12.794630

   izeta = 2
                 rmatch =    2.448393
              splitnorm =    0.200000
                 energy =   -0.308794
                kinetic =    7.276760
    potential(screened) =   -7.585554
       potential(ionic) =  -16.274360

POLgen: Perturbative polarization orbital with L=  2

POLgen: Polarization orbital for state 2p

   izeta = 1
                     rc =    4.930772
                 energy =    2.032508
                kinetic =    4.135494
    potential(screened) =   -2.102986
       potential(ionic) =   -8.058118
atom: Total number of Sankey-type orbitals: 13

atm_pop: Valence configuration (for local Pseudopot. screening):
 2s( 2.00)                                                            
 2p( 4.00)                                                            
Vna: chval, zval:    6.00000   6.00000

Vna:  Cut-off radius for the neutral-atom potential:   4.930772

atom: _________________________________________________________________________

prinput: Basis input ----------------------------------------------------------

PAO.BasisType split     

%block ChemicalSpeciesLabel
    1    6 C                       # Species index, atomic number, species label
    2    1 H                       # Species index, atomic number, species label
    3    7 N                       # Species index, atomic number, species label
    4    8 O                       # Species index, atomic number, species label
%endblock ChemicalSpeciesLabel

%block PAO.Basis                 # Define Basis set
C                     2                    # Species label, number of l-shells
 n=2   0   2                         # n, l, Nzeta 
   5.120      3.306   
   1.000      1.000   
 n=2   1   2 P   1                   # n, l, Nzeta, Polarization, NzetaPol
   6.254      3.432   
   1.000      1.000   
H                     1                    # Species label, number of l-shells
 n=1   0   2 P   1                   # n, l, Nzeta, Polarization, NzetaPol
   6.047      3.078   
   1.000      1.000   
N                     2                    # Species label, number of l-shells
 n=2   0   2                         # n, l, Nzeta 
   4.500      2.763   
   1.000      1.000   
 n=2   1   2 P   1                   # n, l, Nzeta, Polarization, NzetaPol
   5.496      2.833   
   1.000      1.000   
O                     2                    # Species label, number of l-shells
 n=2   0   2                         # n, l, Nzeta 
   3.937      2.388   
   1.000      1.000   
 n=2   1   2 P   1                   # n, l, Nzeta, Polarization, NzetaPol
   4.931      2.448   
   1.000      1.000   
%endblock PAO.Basis

prinput: ----------------------------------------------------------------------

coor:   Atomic-coordinates input format  =     Cartesian coordinates
coor:                                          (in Angstroms)

siesta: Atomic coordinates (Bohr) and species
siesta:    -10.80125   7.29736   5.63264  3        1
siesta:    -14.78696   8.80265   6.06109  3        2
siesta:    -19.06623   5.20098   7.77520  3        3
siesta:    -15.89477   2.10447   7.97085  3        4
siesta:    -11.50467   2.86169   6.88282  3        5
siesta:    -12.43324   9.35882   5.45032  1        6
siesta:    -14.70855   6.24329   6.67777  1        7
siesta:    -16.60943   4.52643   7.48383  1        8
siesta:    -13.44324   1.41891   7.66165  1        9
siesta:    -12.24899   5.25599   6.42679  1       10
siesta:     -8.93217   7.26015   5.24832  2       11
siesta:    -11.76320  11.19848   4.86884  2       12
siesta:    -20.36558   3.94711   8.46404  2       13
siesta:    -19.56029   7.01451   7.45482  2       14
siesta:    -13.03032  -0.54161   8.12485  2       15
siesta:    -15.89617  -4.25174  10.49967  4       16
siesta:    -22.57409   1.32655   9.91190  4       17
siesta:    -19.83715  -5.50414  11.91254  3       18
siesta:    -19.27463  -1.48982  10.17691  3       19
siesta:    -18.13795  -3.76874  10.82632  1       20
siesta:    -21.81369  -0.80942  10.52284  1       21
siesta:    -23.45637  -2.76032  11.63476  1       22
siesta:    -26.22974  -2.15672  11.98000  1       23
siesta:    -22.38260  -5.01106  12.29062  1       24
siesta:    -18.07311  -0.14952   9.35078  2       25
siesta:    -19.07066  -7.17833  12.41850  2       26
siesta:    -23.45484  -6.53423  13.14861  2       27
siesta:    -27.23935  -3.75181  12.82711  2       28
siesta:    -26.47356  -0.48650  13.18243  2       29
siesta:    -27.10513  -1.70429  10.15566  2       30

siesta: Automatic unit cell vectors (Ang):
siesta:   17.696563    0.000000    0.000000
siesta:    0.000000   17.737093    0.000000
siesta:    0.000000    0.000000   11.879342

siesta: System type = molecule  

initatomlists: Number of atoms, orbitals, and projectors:     30   302   403

siesta: ******************** Simulation parameters ****************************
siesta:
siesta: The following are some of the parameters of the simulation.
siesta: A complete list of the parameters used, including default values,
siesta: can be found in file out.fdf
siesta:
redata: Non-Collinear-spin run           =     F
redata: SpinPolarized (Up/Down) run      =     F
redata: Number of spin components        =     1
redata: Long output                      =     T
redata: Number of Atomic Species         =        4
redata: Charge density info will appear in .RHO file
redata: Write Mulliken Pop.              =     Atomic and Orbital charges
redata: Mesh Cutoff                      =   150.0000  Ry
redata: Net charge of the system         =     0.0000 |e|
redata: Max. number of SCF Iter          =       50
redata: Performing Pulay mixing using    =     4 iterations
redata: Mix DM in first SCF step ?       =     F
redata: Write Pulay info on disk?        =     F
redata: Discard 1st Pulay DM after  kick =     F
redata: New DM Mixing Weight             =     0.1000
redata: New DM Occupancy tolerance       = 0.000000000001
redata: No kicks to SCF
redata: DM Mixing Weight for Kicks       =     0.5000
redata: DM Tolerance for SCF             =     0.000100
redata: Require Energy convergence for SCF =     F
redata: DM Energy tolerance for SCF      =     0.000100 eV
redata: Require Harris convergence for SCF =     F
redata: DM Harris energy tolerance for SCF =     0.000100 eV
redata: Using Saved Data (generic)   =     F
redata: Use continuation files for DM    =     F
redata: Neglect nonoverlap interactions  =     F
redata: Method of Calculation            =     Diagonalization
redata: Divide and Conquer               =     T
redata: Electronic Temperature           =     0.0019  Ry
redata: Fix the spin of the system       =     F
redata: Dynamics option                  =     CG coord. optimization
redata: Variable cell                    =     F
redata: Use continuation files for CG    =     F
redata: Max atomic displ per move        =     0.2000  Bohr
redata: Maximum number of CG moves       =      100
redata: Force tolerance                  =     0.0016  Ry/Bohr
redata: ***********************************************************************
Total number of electrons:    98.000000
Total ionic charge:    98.000000
 Kpoints in:            1 . Kpoints trimmed:            1

siesta: k-point coordinates (Bohr**-1) and weights:
siesta:    1    0.000000    0.000000    0.000000       1.000000

siesta: k-grid: Number of k-points =     1
siesta: k-grid: Cutoff (effective) =     5.940 Ang
siesta: k-grid: Supercell and displacements
siesta: k-grid:    1   0   0      0.000
siesta: k-grid:    0   1   0      0.000
siesta: k-grid:    0   0   1      0.000

* Maximum dynamic memory allocated =     4 MB

siesta:                 ==============================
                            Begin CG move =      0
                        ==============================

outcoor: Atomic coordinates (Ang):                          
   -5.71577300    3.86159700    2.98066100   3       1  N
   -7.82491800    4.65816100    3.20738700   3       2  N
  -10.08940800    2.75224100    4.11445600   3       3  N
   -8.41114600    1.11363800    4.21799200   3       4  N
   -6.08800800    1.51434000    3.64223200   3       5  N
   -6.57938300    4.95247400    2.88418300   1       6  C
   -7.78342500    3.30380500    3.53372300   1       7  C
   -8.78933000    2.39528500    3.96027000   1       8  C
   -7.11385100    0.75085300    4.05436900   1       9  C
   -6.48188600    2.78135100    3.40090900   1      10  C
   -4.72669700    3.84190500    2.77729100   2      11  H
   -6.22481400    5.92598000    2.57648000   2      12  H
  -10.77699500    2.08872200    4.47897600   2      13  H
  -10.35085700    3.71191900    3.94492000   2      14  H
   -6.89534700   -0.28660500    4.29948200   2      15  H
   -8.41189000   -2.24992300    5.55618400   4      16  O
  -11.94568700    0.70198200    5.24514900   4      17  O
  -10.49736200   -2.91266200    6.30384000   3      18  N
  -10.19969100   -0.78837900    5.38538500   3      19  N
   -9.59818700   -1.99432900    5.72904100   1      20  C
  -11.54330400   -0.42832600    5.56844500   1      21  C
  -12.41257200   -1.46069700    6.15684900   1      22  C
  -13.88017400   -1.14128600    6.33954300   1      23  C
  -11.84435500   -2.65173900    6.50391500   1      24  C
   -9.56387400   -0.07912000    4.94821600   2      25  H
  -10.09175500   -3.79860500    6.57158300   2      26  H
  -12.41176100   -3.45776300    6.95794300   2      27  H
  -14.41443600   -1.98537400    6.78781100   2      28  H
  -14.00919700   -0.25744600    6.97583700   2      29  H
  -14.34340900   -0.90187100    5.37414300   2      30  H

outcell: Unit cell vectors (Ang):
       17.696563    0.000000    0.000000
        0.000000   17.737093    0.000000
        0.000000    0.000000   11.879342

outcell: Cell vector modules (Ang)   :   17.696563   17.737093   11.879342
outcell: Cell angles (23,13,12) (deg):     90.0000     90.0000     90.0000
outcell: Cell volume (Ang**3)        :   3728.7543
New_DM. Step:     1
Initializing Density Matrix...

InitMesh: MESH =   144 x   144 x    90 =     1866240
InitMesh: Mesh cutoff (required, used) =   150.000   158.636 Ry

* Maximum dynamic memory allocated =   149 MB

stepf: Fermi-Dirac step function

siesta: Program's energy decomposition (eV):
siesta: Ebs     =     -1660.649493
siesta: Eions   =      6885.881546
siesta: Ena     =      1218.993930
siesta: Ekin    =      2758.717163
siesta: Enl     =      -400.312367
siesta: DEna    =         0.000000
siesta: DUscf   =         0.000000
siesta: DUext   =         0.000000
siesta: Exc     =     -1184.114257
siesta: eta*DQ  =         0.000000
siesta: Emadel  =         0.000000
siesta: Emeta   =         0.000000
siesta: Emolmec =         0.000000
siesta: Ekinion =         0.000000
siesta: Eharris =     -4499.906088
siesta: Etot    =     -4492.597077
siesta: FreeEng =     -4492.597077

siesta: iscf   Eharris(eV)      E_KS(eV)   FreeEng(eV)   dDmax  Ef(eV)
siesta:    1    -4499.9061    -4492.5971    -4492.5971  1.9866 -5.9280
timer: Routine,Calls,Time,% = IterSCF        1      11.597  85.09
elaps: Routine,Calls,Wall,% = IterSCF        1      11.635  85.07
siesta:    2    -4506.8235    -4475.8748    -4475.8748  0.6113 -1.7069
siesta:    3    -4491.1667    -4484.2813    -4484.2813  0.4087 -2.4962
siesta:    4    -4489.0001    -4483.3953    -4483.3953  0.2376 -3.4610
siesta:    5    -4488.0263    -4484.7293    -4484.7293  0.1075 -2.9228
siesta:    6    -4487.8351    -4485.2541    -4485.2541  0.0457 -2.9796
siesta:    7    -4487.7693    -4485.8483    -4485.8483  0.0266 -4.1040
siesta:    8    -4487.7442    -4486.8251    -4486.8251  0.0089 -4.0995
siesta:    9    -4487.7432    -4486.9945    -4486.9945  0.0076 -4.1001
siesta:   10    -4487.7412    -4487.4509    -4487.4509  0.0039 -4.0889
siesta:   11    -4487.7411    -4487.5335    -4487.5335  0.0027 -4.0848
siesta:   12    -4487.7409    -4487.6862    -4487.6862  0.0009 -4.0786
siesta:   13    -4487.7409    -4487.6994    -4487.6994  0.0008 -4.0800
siesta:   14    -4487.7409    -4487.7325    -4487.7325  0.0002 -4.0828
siesta:   15    -4487.7409    -4487.7435    -4487.7435  0.0002 -4.0831
siesta:   16    -4487.7408    -4487.7489    -4487.7489  0.0002 -4.0831
siesta:   17    -4487.7409    -4487.7477    -4487.7477  0.0002 -4.0832
siesta:   18    -4487.7409    -4487.7421    -4487.7421  0.0001 -4.0837

siesta: E_KS(eV) =            -4487.7417

siesta: E_KS - E_eggbox =     -4487.7417

siesta: Atomic forces (eV/Ang):
     1   -1.496803    0.007697    0.285893
     2    0.405620   -0.691616    0.089930
     3    1.315447   -0.281600   -0.214830
     4    0.188172    0.331896   -0.051407
     5   -0.583827    0.283699    0.077873
     6   -0.263104   -1.595328    0.451121
     7    0.133476    0.485639   -0.171787
     8   -0.338196   -0.145943    0.099574
     9   -0.262337    1.315674   -0.297288
    10    0.101782    0.067898   -0.033953
    11    0.535254   -0.037789   -0.098242
    12    0.231999    0.669824   -0.215736
    13   -0.496344   -0.656825    0.324502
    14   -0.032589    0.478398   -0.100542
    15    0.099719   -0.717200    0.174358
    16   -0.298297    0.073757    0.026667
    17    0.256093   -0.208212   -0.009192
    18   -0.536227    1.162067   -0.324049
    19   -0.924174   -0.883318    0.593348
    20   -0.597465    0.099920    0.077519
    21    0.371354   -0.278898    0.024326
    22   -0.320199    0.338822   -0.072615
    23    1.283780   -0.292621   -0.151364
    24    1.122566    0.626282   -0.503659
    25    0.614786    0.648049   -0.399302
    26    0.261882   -0.459291    0.125807
    27   -0.391125   -0.494069    0.266464
    28   -0.211497   -0.372773    0.200003
    29   -0.016158    0.408336    0.264551
    30   -0.161472    0.125146   -0.420570
----------------------------------------
   Tot   -0.007883    0.007622    0.017397
----------------------------------------
   Max    1.595328
   Res    0.514113    sqrt( Sum f_i^2 / 3N )
----------------------------------------
   Max    1.595328    constrained

Stress-tensor-Voigt (kbar):        4.01        2.25        0.10       -0.36       -0.68       -0.78
(Free)E + p*V (eV/cell)    -4492.6713
Target enthalpy (eV/cell)    -4487.7417

mulliken: Mulliken Atomic and Orbital Populations:

Species: C                   
Atom  Qatom  Qorb
               2s      2s      2py     2pz     2px     2py     2pz     2px     
               2Pdxy   2Pdyz   2Pdz2   2Pdxz   2Pdx2-y2
   6  3.974   0.551   0.435   0.439   0.644   0.516   0.465   0.274   0.388
              0.085   0.030   0.015   0.056   0.075
   7  3.992   0.604   0.404   0.465   0.676   0.481   0.410   0.293   0.430
              0.077   0.050   0.017   0.032   0.054
   8  4.019   0.703   0.362   0.511   0.540   0.396   0.397   0.309   0.440
              0.104   0.054   0.024   0.082   0.096
   9  3.976   0.531   0.458   0.460   0.565   0.558   0.497   0.271   0.357
              0.070   0.017   0.018   0.067   0.107
  10  4.048   0.698   0.356   0.479   0.587   0.458   0.397   0.302   0.440
              0.108   0.070   0.024   0.049   0.080
  20  4.122   0.734   0.324   0.395   0.486   0.380   0.435   0.342   0.531
              0.169   0.058   0.042   0.111   0.116
  21  4.065   0.701   0.363   0.434   0.498   0.415   0.473   0.320   0.439
              0.131   0.075   0.039   0.063   0.116
  22  3.963   0.592   0.414   0.505   0.704   0.536   0.400   0.252   0.371
              0.056   0.029   0.015   0.043   0.046
  23  3.754   0.090   0.688   0.511   0.536   0.513   0.463   0.447   0.400
              0.025   0.018   0.010   0.033   0.021
  24  3.878   0.477   0.480   0.456   0.633   0.447   0.498   0.284   0.393
              0.061   0.028   0.013   0.052   0.057

Species: H                   
Atom  Qatom  Qorb
               1s      1s      1Ppy    1Ppz    1Ppx    
  11  1.054   0.560   0.355   0.024   0.052   0.063
  12  1.096   0.679   0.328   0.034   0.041   0.013
  13  1.048   0.470   0.375   0.073   0.067   0.062
  14  1.069   0.558   0.354   0.064   0.059   0.035
  15  1.097   0.684   0.329   0.043   0.033   0.008
  25  1.067   0.466   0.374   0.088   0.063   0.076
  26  1.059   0.572   0.348   0.058   0.049   0.033
  27  1.099   0.695   0.315   0.036   0.038   0.015
  28  1.081   0.668   0.319   0.037   0.032   0.025
  29  1.069   0.647   0.327   0.038   0.033   0.024
  30  1.068   0.647   0.327   0.032   0.037   0.026

Species: N                   
Atom  Qatom  Qorb
               2s      2s      2py     2pz     2px     2py     2pz     2px     
               2Pdxy   2Pdyz   2Pdz2   2Pdxz   2Pdx2-y2
   1  4.763   0.629   0.495   0.750   1.248   0.491   0.348   0.172   0.526
              0.022   0.027   0.011   0.012   0.032
   2  5.053   0.971   0.369   0.951   1.040   1.110   0.219   0.114   0.176
              0.022   0.021   0.012   0.021   0.028
   3  4.733   0.550   0.521   0.613   1.320   0.609   0.470   0.159   0.438
              0.015   0.003   0.003   0.016   0.015
   4  5.020   0.962   0.349   0.883   1.151   0.916   0.283   0.104   0.277
              0.022   0.018   0.009   0.018   0.027
   5  5.021   0.930   0.381   0.678   1.047   1.309   0.348   0.125   0.104
              0.026   0.022   0.011   0.017   0.025
  18  4.776   0.636   0.486   0.687   1.229   0.616   0.420   0.184   0.422
              0.030   0.008   0.011   0.026   0.021
  19  4.744   0.653   0.477   0.724   1.201   0.642   0.377   0.181   0.412
              0.021   0.012   0.006   0.018   0.021

Species: O                   
Atom  Qatom  Qorb
               2s      2s      2py     2pz     2px     2py     2pz     2px     
               2Pdxy   2Pdyz   2Pdz2   2Pdxz   2Pdx2-y2
  16  6.130   1.400   0.223   1.639   1.434   1.151   0.024   0.046   0.171
              0.010   0.001   0.003   0.015   0.011
  17  6.160   1.430   0.205   1.142   1.409   1.701   0.191   0.045  -0.005
              0.009   0.013   0.005   0.003   0.011

mulliken: Qtot =       98.000

* Maximum dynamic memory allocated =   152 MB

siesta:                 ==============================
                            Begin CG move =      1
                        ==============================

outcoor: Atomic coordinates (Ang):                          
   -5.74825299    3.86176401    2.98686475   3       1  N
   -7.81611622    4.64315324    3.20933844   3       2  N
  -10.06086335    2.74613041    4.10979428   3       3  N
   -8.40706274    1.12084001    4.21687648   3       4  N
   -6.10067681    1.52049614    3.64392181   3       5  N
   -6.58509224    4.91785607    2.89397212   1       6  C
   -7.78052863    3.31434316    3.52999529   1       7  C
   -8.79666871    2.39211810    3.96243070   1       8  C
   -7.11954360    0.77940256    4.04791798   1       9  C
   -6.47967737    2.78282436    3.40017223   1      10  C
   -4.71508222    3.84108500    2.77515919   2      11  H
   -6.21977972    5.94051489    2.57179861   2      12  H
  -10.78776545    2.07446918    4.48601756   2      13  H
  -10.35156417    3.72230002    3.94273827   2      14  H
   -6.89318314   -0.30216793    4.30326550   2      15  H
   -8.41836291   -2.24832250    5.55676265   4      16  O
  -11.94012989    0.69746388    5.24494954   4      17  O
  -10.50899789   -2.88744565    6.29680827   3      18  N
  -10.21974517   -0.80754662    5.39826039   3      19  N
   -9.61115174   -1.99216079    5.73072313   1      20  C
  -11.53524578   -0.43437797    5.56897287   1      21  C
  -12.41952018   -1.45334471    6.15527328   1      22  C
  -13.85231652   -1.14763576    6.33625847   1      23  C
  -11.81999581   -2.63814894    6.49298581   1      24  C
   -9.55053341   -0.06505760    4.93955131   2      25  H
  -10.08607227   -3.80857141    6.57431296   2      26  H
  -12.42024824   -3.46848409    6.96372515   2      27  H
  -14.41902540   -1.99346301    6.79215097   2      28  H
  -14.00954761   -0.24858529    6.98157764   2      29  H
  -14.34691288   -0.89915538    5.36501682   2      30  H

outcell: Unit cell vectors (Ang):
       17.696563    0.000000    0.000000
        0.000000   17.737093    0.000000
        0.000000    0.000000   11.879342

outcell: Cell vector modules (Ang)   :   17.696563   17.737093   11.879342
outcell: Cell angles (23,13,12) (deg):     90.0000     90.0000     90.0000
outcell: Cell volume (Ang**3)        :   3728.7543
New_DM. Step:     2
Re-using DM from previous geometry...
Re-using DM without extrapolation (not allowed)
Density Matrix sparsity pattern changed.

siesta: iscf   Eharris(eV)      E_KS(eV)   FreeEng(eV)   dDmax  Ef(eV)
siesta:    1    -4487.8106    -4488.7924    -4488.7924  0.0422 -3.8145
siesta:    2    -4487.8993    -4487.6697    -4487.6697  0.0593 -3.0523
siesta:    3    -4487.7630    -4488.0842    -4488.0842  0.0197 -3.9918
siesta:    4    -4487.7540    -4487.7733    -4487.7733  0.0058 -3.9699
siesta:    5    -4487.7514    -4487.7329    -4487.7329  0.0024 -3.9468
siesta:    6    -4487.7510    -4487.7377    -4487.7377  0.0020 -3.9365
siesta:    7    -4487.7507    -4487.7528    -4487.7528  0.0012 -3.9304
siesta:    8    -4487.7507    -4487.7515    -4487.7515  0.0009 -3.9309
siesta:    9    -4487.7507    -4487.7449    -4487.7449  0.0006 -3.9339
siesta:   10    -4487.7507    -4487.7469    -4487.7469  0.0003 -3.9342
siesta:   11    -4487.7507    -4487.7482    -4487.7482  0.0002 -3.9343
siesta:   12    -4487.7507    -4487.7506    -4487.7506  0.0000 -3.9350

siesta: E_KS(eV) =            -4487.7504

siesta: Atomic forces (eV/Ang):
     1    2.132836   -0.800663   -0.254679
     2   -0.763922   -0.233343    0.206993
     3   -1.542901    0.191663    0.328471
     4   -0.384147    0.224611    0.095198
     5    0.127840    0.428782   -0.120258
     6    0.435532    1.915960   -0.552190
     7   -0.332115   -0.961592    0.284816
     8    1.275885    0.292016   -0.315215
     9    0.159073   -1.135933    0.300837
    10   -0.842447   -0.009595    0.169465
    11   -1.195947    0.055009    0.244956
    12   -0.263147   -0.886594    0.261714
    13    0.392361    0.014243   -0.094550
    14    0.373994   -0.407161    0.013738
    15   -0.188751    0.645095   -0.144802
    16   -0.636172    0.130876    0.077286
    17    0.381691   -0.042201   -0.097765
    18    1.186521   -1.280006    0.269784
    19    0.794501    0.883993   -0.532302
    20    0.130896    0.009491   -0.042540
    21   -0.589978   -0.176870    0.207651
    22    0.823220   -0.028953   -0.169997
    23   -0.467472    0.099037    0.070963
    24   -1.353552   -0.085198    0.341180
    25   -0.161593   -0.218822    0.136353
    26   -0.381276    0.934516   -0.293667
    27    0.394112    0.476345   -0.298495
    28    0.193035    0.069395   -0.061046
    29    0.131196   -0.096208   -0.106851
    30    0.165949   -0.011736    0.094893
----------------------------------------
   Tot   -0.004779   -0.003843    0.019939
----------------------------------------
   Max    2.132836
   Res    0.596354    sqrt( Sum f_i^2 / 3N )
----------------------------------------
   Max    2.132836    constrained

Stress-tensor-Voigt (kbar):        1.51        2.54        0.55        0.73       -0.96       -0.57
(Free)E + p*V (eV/cell)    -4491.3213
Target enthalpy (eV/cell)    -4487.7504

mulliken: Mulliken Atomic and Orbital Populations:

Species: C                   
Atom  Qatom  Qorb
               2s      2s      2py     2pz     2px     2py     2pz     2px     
               2Pdxy   2Pdyz   2Pdz2   2Pdxz   2Pdx2-y2
   6  4.035   0.603   0.405   0.480   0.637   0.543   0.437   0.282   0.377
              0.087   0.031   0.015   0.060   0.077
   7  4.003   0.613   0.398   0.486   0.680   0.481   0.399   0.291   0.423
              0.079   0.051   0.017   0.032   0.053
   8  4.044   0.715   0.355   0.516   0.528   0.430   0.394   0.317   0.422
              0.106   0.055   0.024   0.085   0.096
   9  4.018   0.567   0.437   0.491   0.561   0.584   0.470   0.276   0.344
              0.071   0.017   0.019   0.070   0.110
  10  4.070   0.701   0.351   0.501   0.590   0.467   0.384   0.306   0.436
              0.108   0.072   0.024   0.049   0.081
  20  4.141   0.737   0.320   0.408   0.487   0.381   0.428   0.345   0.534
              0.170   0.059   0.043   0.112   0.117
  21  4.081   0.706   0.357   0.433   0.496   0.431   0.473   0.323   0.433
              0.134   0.075   0.039   0.064   0.115
  22  3.955   0.577   0.419   0.510   0.703   0.503   0.398   0.256   0.396
              0.057   0.028   0.015   0.046   0.046
  23  3.775   0.120   0.675   0.525   0.548   0.508   0.447   0.431   0.412
              0.026   0.018   0.010   0.036   0.021
  24  3.917   0.513   0.461   0.478   0.634   0.476   0.475   0.282   0.381
              0.062   0.028   0.013   0.055   0.058

Species: H                   
Atom  Qatom  Qorb
               1s      1s      1Ppy    1Ppz    1Ppx    
  11  1.026   0.559   0.335   0.023   0.047   0.063
  12  1.083   0.689   0.311   0.033   0.038   0.011
  13  1.025   0.469   0.358   0.071   0.063   0.064
  14  1.052   0.556   0.343   0.063   0.055   0.034
  15  1.086   0.691   0.314   0.042   0.031   0.007
  25  1.032   0.452   0.356   0.088   0.060   0.077
  26  1.034   0.570   0.329   0.058   0.044   0.032
  27  1.086   0.700   0.301   0.035   0.036   0.014
  28  1.077   0.675   0.310   0.036   0.031   0.024
  29  1.064   0.653   0.318   0.038   0.032   0.023
  30  1.064   0.653   0.318   0.031   0.037   0.025

Species: N                   
Atom  Qatom  Qorb
               2s      2s      2py     2pz     2px     2py     2pz     2px     
               2Pdxy   2Pdyz   2Pdz2   2Pdxz   2Pdx2-y2
   1  4.744   0.608   0.507   0.703   1.225   0.506   0.388   0.183   0.512
              0.024   0.030   0.011   0.012   0.034
   2  5.027   0.925   0.387   0.935   1.030   1.086   0.237   0.126   0.195
              0.023   0.022   0.012   0.022   0.028
   3  4.740   0.562   0.520   0.644   1.308   0.592   0.445   0.159   0.457
              0.015   0.003   0.003   0.016   0.016
   4  5.007   0.936   0.359   0.878   1.153   0.888   0.290   0.111   0.296
              0.023   0.018   0.009   0.019   0.027
   5  5.004   0.899   0.392   0.665   1.041   1.290   0.362   0.134   0.119
              0.026   0.023   0.011   0.017   0.026
  18  4.756   0.616   0.497   0.697   1.205   0.572   0.410   0.195   0.461
              0.032   0.008   0.011   0.028   0.022
  19  4.746   0.650   0.480   0.732   1.196   0.633   0.375   0.180   0.421
              0.022   0.012   0.006   0.019   0.022

Species: O                   
Atom  Qatom  Qorb
               2s      2s      2py     2pz     2px     2py     2pz     2px     
               2Pdxy   2Pdyz   2Pdz2   2Pdxz   2Pdx2-y2
  16  6.139   1.408   0.219   1.648   1.444   1.150   0.020   0.042   0.168
              0.010   0.001   0.003   0.015   0.011
  17  6.169   1.432   0.203   1.145   1.421   1.705   0.188   0.042  -0.008
              0.009   0.013   0.005   0.003   0.011

mulliken: Qtot =       98.000

* Maximum dynamic memory allocated =   152 MB

siesta:                 ==============================
                            Begin CG move =      2
                        ==============================

outcoor: Atomic coordinates (Ang):                          
   -5.73256535    3.86168335    2.98386838   3       1  N
   -7.82036742    4.65040190    3.20839591   3       2  N
  -10.07465024    2.74908179    4.11204586   3       3  N
   -8.40903493    1.11736148    4.21741527   3       4  N
   -6.09455785    1.51752276    3.64310564   3       5  N
   -6.58233471    4.93457632    2.88924404   1       6  C
   -7.78192756    3.30925329    3.53179575   1       7  C
   -8.79312416    2.39364769    3.96138710   1       8  C
   -7.11679411    0.76561330    4.05103378   1       9  C
   -6.48074412    2.78211274    3.40052809   1      10  C
   -4.72069209    3.84148106    2.77618884   2      11  H
   -6.22221124    5.93349463    2.57405969   2      12  H
  -10.78256339    2.08135321    4.48261653   2      13  H
  -10.35122261    3.71728605    3.94379203   2      14  H
   -6.89422827   -0.29465113    4.30143809   2      15  H
   -8.41523653   -2.24909553    5.55648317   4      16  O
  -11.94281394    0.69964610    5.24504588   4      17  O
  -10.50337783   -2.89962499    6.30020455   3      18  N
  -10.21005913   -0.79828877    5.39204166   3      19  N
   -9.60488985   -1.99320802    5.72991067   1      20  C
  -11.53913785   -0.43145491    5.56871791   1      21  C
  -12.41616425   -1.45689582    6.15603434   1      22  C
  -13.86577151   -1.14456886    6.33784488   1      23  C
  -11.83176115   -2.64471286    6.49826454   1      24  C
   -9.55697683   -0.07184966    4.94373630   2      25  H
  -10.08881699   -3.80375770    6.57299441   2      26  H
  -12.41614896   -3.46330587    6.96093241   2      27  H
  -14.41680875   -1.98955607    6.79005479   2      28  H
  -14.00937827   -0.25286496    6.97880494   2      29  H
  -14.34522053   -0.90046701    5.36942471   2      30  H

outcell: Unit cell vectors (Ang):
       17.696563    0.000000    0.000000
        0.000000   17.737093    0.000000
        0.000000    0.000000   11.879342

outcell: Cell vector modules (Ang)   :   17.696563   17.737093   11.879342
outcell: Cell angles (23,13,12) (deg):     90.0000     90.0000     90.0000
outcell: Cell volume (Ang**3)        :   3728.7543
New_DM. Step:     3
Re-using DM from previous geometry...
Re-using DM without extrapolation (not allowed)

siesta: iscf   Eharris(eV)      E_KS(eV)   FreeEng(eV)   dDmax  Ef(eV)
siesta:    1    -4487.8846    -4487.2923    -4487.2923  0.0207 -2.9759
siesta:    2    -4487.9074    -4487.8509    -4487.8509  0.0304 -3.9241
siesta:    3    -4487.8735    -4487.6686    -4487.6686  0.0094 -3.9809
siesta:    4    -4487.8713    -4487.8453    -4487.8453  0.0030 -3.9855
siesta:    5    -4487.8705    -4487.8638    -4487.8638  0.0010 -4.0021
siesta:    6    -4487.8704    -4487.8667    -4487.8667  0.0009 -4.0035
siesta:    7    -4487.8704    -4487.8695    -4487.8695  0.0005 -4.0054
siesta:    8    -4487.8704    -4487.8677    -4487.8677  0.0004 -4.0050
siesta:    9    -4487.8704    -4487.8672    -4487.8672  0.0002 -4.0048
siesta:   10    -4487.8704    -4487.8686    -4487.8686  0.0001 -4.0048
siesta:   11    -4487.8704    -4487.8696    -4487.8696  0.0001 -4.0046

siesta: E_KS(eV) =            -4487.8700

siesta: Atomic forces (eV/Ang):
     1    0.413136   -0.386438   -0.006835
     2   -0.179187   -0.465886    0.149193
     3   -0.156319   -0.060109    0.073612
     4   -0.105771    0.279426    0.022931
     5   -0.223642    0.356466   -0.022768
     6    0.127921    0.236164   -0.077312
     7   -0.111099   -0.250707    0.061909
     8    0.478313    0.094978   -0.115266
     9   -0.028414    0.006214    0.021142
    10   -0.384745    0.033338    0.069603
    11   -0.426266    0.011343    0.093510
    12   -0.045043   -0.187719    0.048247
    13   -0.012491   -0.283125    0.093506
    14    0.178323    0.004072   -0.037931
    15   -0.060411    0.033810   -0.001498
    16   -0.473692    0.103822    0.052696
    17    0.321501   -0.124601   -0.054439
    18    0.353081   -0.135530   -0.002254
    19   -0.010090    0.066366   -0.009174
    20   -0.230435    0.051538    0.018357
    21   -0.114325   -0.230989    0.118316
    22    0.251538    0.153207   -0.120569
    23    0.396871   -0.092123   -0.039121
    24   -0.142235    0.220831   -0.055012
    25    0.172155    0.152751   -0.093870
    26   -0.092785    0.309279   -0.105704
    27    0.034772    0.040424   -0.043692
    28   -0.000398   -0.135207    0.060798
    29    0.057949    0.140581    0.067396
    30    0.007099    0.053358   -0.147574
----------------------------------------
   Tot   -0.004689   -0.004466    0.018194
----------------------------------------
   Max    0.478313
   Res    0.184216    sqrt( Sum f_i^2 / 3N )
----------------------------------------
   Max    0.478313    constrained

Stress-tensor-Voigt (kbar):        2.82        2.51        0.35        0.21       -0.86       -0.69
(Free)E + p*V (eV/cell)    -4492.2835
Target enthalpy (eV/cell)    -4487.8700

mulliken: Mulliken Atomic and Orbital Populations:

Species: C                   
Atom  Qatom  Qorb
               2s      2s      2py     2pz     2px     2py     2pz     2px     
               2Pdxy   2Pdyz   2Pdz2   2Pdxz   2Pdx2-y2
   6  4.005   0.578   0.420   0.460   0.641   0.530   0.451   0.278   0.383
              0.086   0.031   0.015   0.058   0.076
   7  3.998   0.609   0.401   0.475   0.678   0.481   0.404   0.292   0.426
              0.078   0.051   0.017   0.032   0.054
   8  4.032   0.709   0.359   0.514   0.534   0.413   0.395   0.313   0.432
              0.105   0.054   0.024   0.083   0.096
   9  3.998   0.550   0.447   0.476   0.563   0.572   0.483   0.273   0.351
              0.071   0.017   0.019   0.068   0.109
  10  4.059   0.700   0.354   0.490   0.588   0.462   0.391   0.304   0.438
              0.108   0.071   0.024   0.049   0.080
  20  4.132   0.735   0.322   0.401   0.486   0.380   0.432   0.344   0.533
              0.169   0.058   0.042   0.112   0.116
  21  4.073   0.704   0.360   0.433   0.497   0.423   0.473   0.322   0.436
              0.133   0.075   0.039   0.063   0.115
  22  3.959   0.584   0.416   0.508   0.704   0.519   0.399   0.254   0.384
              0.056   0.029   0.015   0.045   0.046
  23  3.765   0.105   0.681   0.518   0.542   0.510   0.454   0.438   0.406
              0.026   0.018   0.010   0.034   0.021
  24  3.898   0.496   0.470   0.468   0.634   0.461   0.486   0.283   0.387
              0.062   0.028   0.013   0.054   0.057

Species: H                   
Atom  Qatom  Qorb
               1s      1s      1Ppy    1Ppz    1Ppx    
  11  1.039   0.559   0.345   0.023   0.050   0.063
  12  1.089   0.683   0.320   0.034   0.040   0.012
  13  1.036   0.469   0.366   0.072   0.065   0.063
  14  1.060   0.557   0.348   0.063   0.057   0.034
  15  1.091   0.687   0.322   0.042   0.032   0.008
  25  1.049   0.458   0.365   0.088   0.062   0.077
  26  1.046   0.571   0.338   0.058   0.046   0.033
  27  1.092   0.697   0.308   0.036   0.037   0.015
  28  1.079   0.672   0.315   0.036   0.032   0.024
  29  1.066   0.650   0.322   0.038   0.033   0.024
  30  1.066   0.650   0.322   0.031   0.037   0.025

Species: N                   
Atom  Qatom  Qorb
               2s      2s      2py     2pz     2px     2py     2pz     2px     
               2Pdxy   2Pdyz   2Pdz2   2Pdxz   2Pdx2-y2
   1  4.753   0.619   0.501   0.727   1.237   0.499   0.368   0.177   0.518
              0.023   0.029   0.011   0.012   0.033
   2  5.040   0.947   0.378   0.943   1.035   1.098   0.228   0.120   0.186
              0.022   0.022   0.012   0.022   0.028
   3  4.737   0.557   0.520   0.630   1.314   0.600   0.457   0.159   0.448
              0.015   0.003   0.003   0.016   0.016
   4  5.013   0.949   0.355   0.880   1.152   0.902   0.287   0.108   0.286
              0.023   0.018   0.009   0.018   0.027
   5  5.013   0.914   0.387   0.671   1.044   1.299   0.355   0.129   0.111
              0.026   0.022   0.011   0.017   0.026
  18  4.766   0.626   0.492   0.693   1.217   0.593   0.414   0.189   0.442
              0.031   0.008   0.011   0.027   0.022
  19  4.746   0.652   0.479   0.728   1.199   0.637   0.375   0.180   0.416
              0.022   0.012   0.006   0.018   0.021

Species: O                   
Atom  Qatom  Qorb
               2s      2s      2py     2pz     2px     2py     2pz     2px     
               2Pdxy   2Pdyz   2Pdz2   2Pdxz   2Pdx2-y2
  16  6.135   1.404   0.221   1.643   1.439   1.150   0.022   0.044   0.169
              0.010   0.001   0.003   0.015   0.011
  17  6.164   1.431   0.204   1.144   1.415   1.703   0.189   0.044  -0.006
              0.009   0.013   0.005   0.003   0.011

mulliken: Qtot =       98.000

cgvc: Finished line minimization    1.  Mean atomic displacement =    0.0189

* Maximum dynamic memory allocated =   152 MB

siesta:                 ==============================
                            Begin CG move =      3
                        ==============================

outcoor: Atomic coordinates (Ang):                          
   -5.72694780    3.85031052    2.98492289   3       1  N
   -7.82387421    4.63361111    3.21319486   3       2  N
  -10.07348412    2.74607015    4.11327470   3       3  N
   -8.41133015    1.12706781    4.21786625   3       4  N
   -6.10372460    1.52929132    3.64277578   3       5  N
   -6.57971492    4.93453720    2.88894426   1       6  C
   -7.78462041    3.30398704    3.53286828   1       7  C
   -8.78049168    2.39580990    3.95842229   1       8  C
   -7.11878557    0.77157797    4.05035151   1       9  C
   -6.49165354    2.78339513    3.40243340   1      10  C
   -4.73092239    3.84164982    2.77851732   2      11  H
   -6.22252137    5.93089693    2.57453585   2      12  H
  -10.78511310    2.07010991    4.48680248   2      13  H
  -10.34610219    3.71950839    3.94223060   2      14  H
   -6.89557327   -0.29680462    4.30216003   2      15  H
   -8.43052945   -2.24570689    5.55815578   4      16  O
  -11.93219875    0.69505328    5.24339858   4      17  O
  -10.49531204   -2.89851922    6.29871410   3      18  N
  -10.21441790   -0.80021124    5.39437810   3      19  N
   -9.61431703   -1.99124769    5.73079316   1      20  C
  -11.54088066   -0.43949863    5.57231718   1      21  C
  -12.41014649   -1.45088471    6.15215639   1      22  C
  -13.84841582   -1.14857390    6.33602500   1      23  C
  -11.83102685   -2.63544253    6.49442759   1      24  C
   -9.54919381   -0.06449322    4.93921091   2      25  H
  -10.09040501   -3.79664676    6.57042711   2      26  H
  -12.41684124   -3.46428367    6.96081360   2      27  H
  -14.41774985   -1.99518503    6.79272824   2      28  H
  -14.00773877   -0.24692108    6.98195676   2      29  H
  -14.34572050   -0.89834210    5.36322067   2      30  H

outcell: Unit cell vectors (Ang):
       17.696563    0.000000    0.000000
        0.000000   17.737093    0.000000
        0.000000    0.000000   11.879342

outcell: Cell vector modules (Ang)   :   17.696563   17.737093   11.879342
outcell: Cell angles (23,13,12) (deg):     90.0000     90.0000     90.0000
outcell: Cell volume (Ang**3)        :   3728.7543
New_DM. Step:     4
Re-using DM from previous geometry...
Re-using DM without extrapolation (not allowed)
Density Matrix sparsity pattern changed.

siesta: iscf   Eharris(eV)      E_KS(eV)   FreeEng(eV)   dDmax  Ef(eV)
siesta:    1    -4487.9081    -4488.2762    -4488.2762  0.0345 -4.9900
siesta:    2    -4487.9864    -4487.8421    -4487.8421  0.0644 -3.9751
siesta:    3    -4487.8868    -4488.1015    -4488.1015  0.0107 -3.9250
siesta:    4    -4487.8863    -4487.9029    -4487.9029  0.0051 -5.0296
siesta:    5    -4487.8858    -4487.8932    -4487.8932  0.0017 -5.0246
siesta:    6    -4487.8856    -4487.8886    -4487.8886  0.0011 -5.0182
siesta:    7    -4487.8856    -4487.8870    -4487.8870  0.0009 -5.0172
siesta:    8    -4487.8856    -4487.8826    -4487.8826  0.0005 -5.0159
siesta:    9    -4487.8856    -4487.8825    -4487.8825  0.0003 -5.0163
siesta:   10    -4487.8856    -4487.8830    -4487.8830  0.0001 -5.0170
siesta:   11    -4487.8856    -4487.8838    -4487.8838  0.0001 -5.0171
siesta:   12    -4487.8856    -4487.8844    -4487.8844  0.0001 -5.0172

siesta: E_KS(eV) =            -4487.8847

siesta: Atomic forces (eV/Ang):
     1   -0.676824    0.194030    0.081650
     2    0.236205    0.271880   -0.120166
     3    0.004957   -0.031614    0.045962
     4    0.183562   -0.182808    0.071607
     5   -0.093310   -0.080071    0.051720
     6   -0.219745   -0.443797    0.154267
     7    0.126756    0.032160   -0.050538
     8   -0.733978    0.054259    0.145453
     9   -0.067174   -0.306915    0.126910
    10    0.210308    0.042593   -0.058094
    11    0.214910   -0.104585   -0.013457
    12   -0.037146   -0.096380    0.025923
    13    0.208327   -0.085369   -0.009650
    14    0.176842   -0.175748    0.006043
    15   -0.104669    0.284929   -0.059522
    16    0.130275    0.027036   -0.062159
    17    0.160101   -0.073419   -0.033125
    18   -0.567222    0.134927    0.091719
    19    0.259801    0.393247   -0.213833
    20   -0.173638    0.118849   -0.007238
    21    0.217191    0.275463   -0.156997
    22    0.126851   -0.111449    0.015812
    23   -0.488059    0.176092    0.036721
    24    0.132989   -0.425703    0.142183
    25   -0.104752   -0.092303    0.075355
    26    0.079623   -0.005818   -0.016956
    27    0.169806    0.298968   -0.176554
    28    0.254028    0.115810   -0.092027
    29    0.152026   -0.166001   -0.151057
    30    0.211528   -0.037700    0.169285
----------------------------------------
   Tot   -0.010435    0.000562    0.019237
----------------------------------------
   Max    0.733978
   Res    0.206266    sqrt( Sum f_i^2 / 3N )
----------------------------------------
   Max    0.733978    constrained

Stress-tensor-Voigt (kbar):        2.08        1.58        0.49        0.69       -0.62       -0.64
(Free)E + p*V (eV/cell)    -4491.1091
Target enthalpy (eV/cell)    -4487.8847

mulliken: Mulliken Atomic and Orbital Populations:

Species: C                   
Atom  Qatom  Qorb
               2s      2s      2py     2pz     2px     2py     2pz     2px     
               2Pdxy   2Pdyz   2Pdz2   2Pdxz   2Pdx2-y2
   6  3.992   0.573   0.423   0.456   0.650   0.522   0.452   0.271   0.383
              0.084   0.030   0.015   0.056   0.076
   7  4.002   0.601   0.402   0.480   0.663   0.473   0.406   0.304   0.438
              0.080   0.052   0.017   0.033   0.054
   8  4.032   0.704   0.360   0.518   0.531   0.406   0.394   0.317   0.436
              0.105   0.055   0.025   0.083   0.096
   9  4.001   0.557   0.443   0.483   0.565   0.573   0.478   0.272   0.349
              0.070   0.017   0.018   0.068   0.108
  10  4.063   0.698   0.354   0.498   0.581   0.460   0.385   0.309   0.442
              0.109   0.071   0.025   0.050   0.081
  20  4.148   0.737   0.320   0.405   0.482   0.385   0.433   0.348   0.533
              0.171   0.060   0.043   0.113   0.118
  21  4.076   0.699   0.361   0.432   0.494   0.424   0.475   0.326   0.437
              0.133   0.076   0.040   0.064   0.115
  22  3.952   0.569   0.422   0.497   0.690   0.504   0.411   0.265   0.399
              0.058   0.029   0.015   0.046   0.046
  23  3.778   0.126   0.672   0.528   0.552   0.510   0.444   0.427   0.408
              0.026   0.018   0.010   0.035   0.021
  24  3.898   0.501   0.468   0.473   0.637   0.459   0.481   0.279   0.386
              0.061   0.028   0.013   0.053   0.058

Species: H                   
Atom  Qatom  Qorb
               1s      1s      1Ppy    1Ppz    1Ppx    
  11  1.049   0.559   0.352   0.024   0.051   0.063
  12  1.089   0.681   0.321   0.034   0.040   0.013
  13  1.031   0.468   0.362   0.073   0.065   0.063
  14  1.060   0.560   0.346   0.063   0.058   0.034
  15  1.089   0.687   0.319   0.042   0.032   0.008
  25  1.037   0.453   0.359   0.088   0.061   0.076
  26  1.052   0.572   0.342   0.059   0.047   0.033
  27  1.089   0.698   0.305   0.035   0.036   0.015
  28  1.076   0.675   0.310   0.036   0.031   0.024
  29  1.063   0.653   0.317   0.038   0.032   0.023
  30  1.063   0.653   0.317   0.031   0.037   0.025

Species: N                   
Atom  Qatom  Qorb
               2s      2s      2py     2pz     2px     2py     2pz     2px     
               2Pdxy   2Pdyz   2Pdz2   2Pdxz   2Pdx2-y2
   1  4.749   0.613   0.503   0.736   1.236   0.487   0.361   0.178   0.529
              0.023   0.028   0.011   0.012   0.033
   2  5.040   0.945   0.378   0.937   1.034   1.106   0.235   0.119   0.180
              0.022   0.022   0.012   0.021   0.028
   3  4.757   0.582   0.509   0.640   1.326   0.615   0.447   0.152   0.434
              0.014   0.003   0.003   0.016   0.016
   4  5.006   0.940   0.359   0.867   1.147   0.904   0.297   0.110   0.286
              0.023   0.019   0.009   0.018   0.027
   5  5.003   0.900   0.392   0.660   1.038   1.297   0.366   0.133   0.114
              0.026   0.023   0.011   0.017   0.026
  18  4.757   0.616   0.496   0.676   1.213   0.599   0.427   0.193   0.438
              0.031   0.008   0.011   0.026   0.022
  19  4.749   0.656   0.477   0.732   1.201   0.638   0.373   0.178   0.415
              0.021   0.012   0.006   0.018   0.021

Species: O                   
Atom  Qatom  Qorb
               2s      2s      2py     2pz     2px     2py     2pz     2px     
               2Pdxy   2Pdyz   2Pdz2   2Pdxz   2Pdx2-y2
  16  6.132   1.396   0.224   1.644   1.437   1.151   0.022   0.045   0.172
              0.010   0.001   0.003   0.015   0.011
  17  6.166   1.431   0.204   1.139   1.414   1.713   0.191   0.043  -0.010
              0.009   0.013   0.005   0.003   0.011

mulliken: Qtot =       98.000

* Maximum dynamic memory allocated =   152 MB

siesta:                 ==============================
                            Begin CG move =      4
                        ==============================

outcoor: Atomic coordinates (Ang):                          
   -5.72918359    3.85483691    2.98450319   3       1  N
   -7.82247851    4.64029385    3.21128487   3       2  N
  -10.07394824    2.74726878    4.11278562   3       3  N
   -8.41041665    1.12320469    4.21768676   3       4  N
   -6.10007622    1.52460743    3.64290706   3       5  N
   -6.58075760    4.93455277    2.88906357   1       6  C
   -7.78354866    3.30608301    3.53244141   1       7  C
   -8.78551941    2.39494934    3.95960229   1       8  C
   -7.11799296    0.76920403    4.05062306   1       9  C
   -6.48731159    2.78288474    3.40167508   1      10  C
   -4.72685072    3.84158265    2.77759058   2      11  H
   -6.22239794    5.93193082    2.57434634   2      12  H
  -10.78409831    2.07458475    4.48513647   2      13  H
  -10.34814012    3.71862390    3.94285205   2      14  H
   -6.89503796   -0.29594753    4.30187270   2      15  H
   -8.42444286   -2.24705557    5.55749008   4      16  O
  -11.93642361    0.69688123    5.24405421   4      17  O
  -10.49852223   -2.89895932    6.29930730   3      18  N
  -10.21268310   -0.79944610    5.39344819   3      19  N
   -9.61056501   -1.99202791    5.73044193   1      20  C
  -11.54018702   -0.43629722    5.57088467   1      21  C
  -12.41254156   -1.45327713    6.15369982   1      22  C
  -13.85532340   -1.14697990    6.33674931   1      23  C
  -11.83131910   -2.63913213    6.49595470   1      24  C
   -9.55229146   -0.06742109    4.94101202   2      25  H
  -10.08977298   -3.79947692    6.57144890   2      26  H
  -12.41656571   -3.46389451    6.96086089   2      27  H
  -14.41737529   -1.99294470    6.79166420   2      28  H
  -14.00839129   -0.24928675    6.98070233   2      29  H
  -14.34552151   -0.89918782    5.36568988   2      30  H

outcell: Unit cell vectors (Ang):
       17.696563    0.000000    0.000000
        0.000000   17.737093    0.000000
        0.000000    0.000000   11.879342

outcell: Cell vector modules (Ang)   :   17.696563   17.737093   11.879342
outcell: Cell angles (23,13,12) (deg):     90.0000     90.0000     90.0000
outcell: Cell volume (Ang**3)        :   3728.7543
New_DM. Step:     5
Re-using DM from previous geometry...
Re-using DM without extrapolation (not allowed)
Density Matrix sparsity pattern changed.

siesta: iscf   Eharris(eV)      E_KS(eV)   FreeEng(eV)   dDmax  Ef(eV)
siesta:    1    -4487.9007    -4487.7288    -4487.7288  0.0141 -3.9667
siesta:    2    -4487.9134    -4487.8901    -4487.8901  0.0257 -3.9382
siesta:    3    -4487.8973    -4487.8030    -4487.8030  0.0047 -3.9553
siesta:    4    -4487.8972    -4487.8870    -4487.8870  0.0009 -3.9518
siesta:    5    -4487.8971    -4487.8940    -4487.8940  0.0011 -3.9535
siesta:    6    -4487.8971    -4487.8944    -4487.8944  0.0004 -3.9555
siesta:    7    -4487.8971    -4487.8944    -4487.8944  0.0003 -3.9561
siesta:    8    -4487.8971    -4487.8954    -4487.8954  0.0001 -3.9566
siesta:    9    -4487.8971    -4487.8959    -4487.8959  0.0001 -3.9564
siesta:   10    -4487.8971    -4487.8969    -4487.8969  0.0000 -3.9560

siesta: E_KS(eV) =            -4487.8969

siesta: Atomic forces (eV/Ang):
     1   -0.237603   -0.034370    0.044735
     2    0.077703   -0.026945   -0.013096
     3   -0.060582   -0.044964    0.057838
     4    0.067752    0.002943    0.051701
     5   -0.145249    0.098408    0.020912
     6   -0.085188   -0.175385    0.063301
     7    0.028475   -0.084569   -0.004143
     8   -0.247563    0.074734    0.039927
     9   -0.052960   -0.182916    0.085439
    10   -0.029789    0.038047   -0.006360
    11   -0.048747   -0.059243    0.030502
    12   -0.040347   -0.133947    0.035264
    13    0.120006   -0.164816    0.031858
    14    0.178276   -0.105318   -0.011367
    15   -0.087381    0.187380   -0.037143
    16   -0.110901    0.058800   -0.016612
    17    0.225664   -0.093805   -0.041795
    18   -0.198669    0.027476    0.053729
    19    0.156996    0.266365   -0.135030
    20   -0.196590    0.089657    0.004212
    21    0.081525    0.068683   -0.044556
    22    0.179506   -0.001970   -0.040700
    23   -0.135728    0.070030    0.006119
    24    0.022780   -0.168681    0.063873
    25    0.001423   -0.000579    0.010660
    26    0.010122    0.123238   -0.053487
    27    0.116889    0.197125   -0.124415
    28    0.153585    0.018914   -0.032512
    29    0.114751   -0.048358   -0.067317
    30    0.130695   -0.002055    0.047336
----------------------------------------
   Tot   -0.011148   -0.006121    0.018874
----------------------------------------
   Max    0.266365
   Res    0.103885    sqrt( Sum f_i^2 / 3N )
----------------------------------------
   Max    0.266365    constrained

Stress-tensor-Voigt (kbar):        2.40        1.97        0.44        0.51       -0.72       -0.67
(Free)E + p*V (eV/cell)    -4491.6307
Target enthalpy (eV/cell)    -4487.8969

mulliken: Mulliken Atomic and Orbital Populations:

Species: C                   
Atom  Qatom  Qorb
               2s      2s      2py     2pz     2px     2py     2pz     2px     
               2Pdxy   2Pdyz   2Pdz2   2Pdxz   2Pdx2-y2
   6  3.997   0.575   0.422   0.457   0.647   0.525   0.452   0.274   0.383
              0.085   0.030   0.015   0.057   0.076
   7  4.000   0.604   0.402   0.478   0.669   0.476   0.406   0.299   0.434
              0.079   0.051   0.017   0.033   0.054
   8  4.032   0.706   0.360   0.517   0.532   0.408   0.395   0.316   0.434
              0.105   0.055   0.025   0.083   0.096
   9  4.000   0.554   0.445   0.480   0.564   0.572   0.480   0.272   0.350
              0.071   0.017   0.018   0.068   0.108
  10  4.062   0.699   0.354   0.495   0.584   0.461   0.387   0.307   0.440
              0.109   0.071   0.025   0.050   0.081
  20  4.141   0.736   0.321   0.403   0.484   0.383   0.432   0.347   0.533
              0.170   0.059   0.043   0.112   0.117
  21  4.075   0.701   0.361   0.432   0.495   0.424   0.474   0.324   0.437
              0.133   0.075   0.039   0.064   0.115
  22  3.955   0.575   0.420   0.502   0.696   0.510   0.406   0.261   0.393
              0.057   0.029   0.015   0.045   0.046
  23  3.773   0.118   0.676   0.524   0.548   0.510   0.448   0.432   0.407
              0.026   0.018   0.010   0.035   0.021
  24  3.898   0.499   0.469   0.471   0.636   0.460   0.483   0.281   0.386
              0.062   0.028   0.013   0.053   0.057

Species: H                   
Atom  Qatom  Qorb
               1s      1s      1Ppy    1Ppz    1Ppx    
  11  1.045   0.559   0.349   0.024   0.051   0.063
  12  1.089   0.682   0.321   0.034   0.040   0.013
  13  1.033   0.469   0.364   0.073   0.065   0.063
  14  1.060   0.559   0.347   0.063   0.058   0.034
  15  1.089   0.687   0.320   0.042   0.032   0.008
  25  1.042   0.455   0.361   0.088   0.061   0.077
  26  1.050   0.571   0.340   0.059   0.047   0.033
  27  1.090   0.697   0.307   0.035   0.036   0.015
  28  1.077   0.673   0.312   0.036   0.032   0.024
  29  1.064   0.651   0.319   0.038   0.032   0.023
  30  1.064   0.652   0.319   0.031   0.037   0.025

Species: N                   
Atom  Qatom  Qorb
               2s      2s      2py     2pz     2px     2py     2pz     2px     
               2Pdxy   2Pdyz   2Pdz2   2Pdxz   2Pdx2-y2
   1  4.751   0.615   0.502   0.732   1.237   0.492   0.364   0.177   0.525
              0.023   0.028   0.011   0.012   0.033
   2  5.040   0.946   0.378   0.939   1.035   1.103   0.232   0.120   0.182
              0.022   0.022   0.012   0.021   0.028
   3  4.749   0.572   0.514   0.636   1.322   0.609   0.451   0.155   0.439
              0.015   0.003   0.003   0.016   0.016
   4  5.009   0.943   0.357   0.872   1.149   0.903   0.293   0.109   0.286
              0.023   0.019   0.009   0.018   0.027
   5  5.007   0.906   0.390   0.665   1.040   1.298   0.362   0.131   0.113
              0.026   0.022   0.011   0.017   0.026
  18  4.760   0.620   0.494   0.683   1.215   0.597   0.422   0.192   0.440
              0.031   0.008   0.011   0.027   0.022
  19  4.748   0.654   0.478   0.730   1.200   0.638   0.374   0.179   0.416
              0.021   0.012   0.006   0.018   0.021

Species: O                   
Atom  Qatom  Qorb
               2s      2s      2py     2pz     2px     2py     2pz     2px     
               2Pdxy   2Pdyz   2Pdz2   2Pdxz   2Pdx2-y2
  16  6.133   1.399   0.223   1.643   1.438   1.151   0.022   0.045   0.171
              0.010   0.001   0.003   0.015   0.011
  17  6.166   1.431   0.204   1.141   1.414   1.709   0.190   0.043  -0.009
              0.009   0.013   0.005   0.003   0.011

mulliken: Qtot =       98.000

cgvc: Finished line minimization    2.  Mean atomic displacement =    0.0114

* Maximum dynamic memory allocated =   152 MB

siesta:                 ==============================
                            Begin CG move =      5
                        ==============================

outcoor: Atomic coordinates (Ang):                          
   -5.73453112    3.85056917    2.98611568   3       1  N
   -7.82120848    4.63468995    3.21227745   3       2  N
  -10.07538803    2.74508838    4.11483182   3       3  N
   -8.40909065    1.12607420    4.21933020   3       4  N
   -6.10695855    1.53086405    3.64342489   3       5  N
   -6.58250117    4.92940526    2.89083143   1       6  C
   -7.78348692    3.30209623    3.53262762   1       7  C
   -8.78914708    2.39775801    3.95992142   1       8  C
   -7.12011499    0.76555758    4.05292957   1       9  C
   -6.49131227    2.78436671    3.40203516   1      10  C
   -4.73121187    3.83989606    2.77915155   2      11  H
   -6.22366845    5.92726319    2.57551562   2      12  H
  -10.78131499    2.06653395    4.48726980   2      13  H
  -10.34145089    3.71617685    3.94207141   2      14  H
   -6.89798265   -0.29107749    4.30099195   2      15  H
   -8.43207596   -2.24436188    5.55748321   4      16  O
  -11.92677093    0.69281708    5.24235785   4      17  O
  -10.50202752   -2.89783759    6.30045339   3      18  N
  -10.20933524   -0.79219667    5.39016373   3      19  N
   -9.61902555   -1.98884010    5.73081832   1      20  C
  -11.53829926   -0.43659236    5.57061192   1      21  C
  -12.40555900   -1.45161113    6.15139587   1      22  C
  -13.85432150   -1.14607747    6.33640666   1      23  C
  -11.83044142   -2.64141378    6.49672502   1      24  C
   -9.55001798   -0.06532857    4.94002654   2      25  H
  -10.08993193   -3.79382871    6.56914631   2      26  H
  -12.41334104   -3.45840194    6.95718323   2      27  H
  -14.41314731   -1.99400492    6.79147867   2      28  H
  -14.00456060   -0.24899852    6.97963470   2      29  H
  -14.34183736   -0.89863867    5.36529714   2      30  H

outcell: Unit cell vectors (Ang):
       17.696563    0.000000    0.000000
        0.000000   17.737093    0.000000
        0.000000    0.000000   11.879342

[...]
              0.021   0.012   0.006   0.019   0.022

Species: O                   
Atom  Qatom  Qorb
               2s      2s      2py     2pz     2px     2py     2pz     2px     
               2Pdxy   2Pdyz   2Pdz2   2Pdxz   2Pdx2-y2
  16  6.146   1.407   0.217   1.660   1.452   1.140   0.013   0.039   0.177
              0.010   0.001   0.003   0.015   0.011
  17  6.174   1.442   0.194   1.101   1.444   1.718   0.215   0.040  -0.020
              0.009   0.012   0.005   0.004   0.011

mulliken: Qtot =       98.000

* Maximum dynamic memory allocated =   159 MB

siesta:                 ==============================
                            Begin CG move =     70
                        ==============================

outcoor: Atomic coordinates (Ang):                          
   -5.85839696    3.74304588    3.03032852   3       1  N
   -7.94828274    4.52319033    3.25660909   3       2  N
  -10.16903914    2.62730270    4.22325160   3       3  N
   -8.47699879    1.04427517    4.31253466   3       4  N
   -6.19308773    1.43225291    3.72716879   3       5  N
   -6.71244757    4.81460273    2.92313777   1       6  C
   -7.89665453    3.19852753    3.59743118   1       7  C
   -8.89148827    2.30187306    4.04885659   1       8  C
   -7.19503848    0.67463232    4.15081184   1       9  C
   -6.60198103    2.67935287    3.46875826   1      10  C
   -4.85605724    3.72058902    2.83084151   2      11  H
   -6.35836614    5.80275920    2.58947246   2      12  H
  -10.87364019    1.90893424    4.59309230   2      13  H
  -10.42649751    3.59494548    4.02313099   2      14  H
   -6.99661355   -0.38556911    4.42126956   2      15  H
   -8.35298501   -2.13718316    5.48689855   4      16  O
  -11.86157483    0.77277527    5.17023787   4      17  O
  -10.41624262   -2.80075495    6.22638216   3      18  N
  -10.12571228   -0.69385614    5.32189829   3      19  N
   -9.54325454   -1.88153863    5.65972827   1      20  C
  -11.43742484   -0.35718636    5.50064117   1      21  C
  -12.30913436   -1.35796495    6.08718442   1      22  C
  -13.73971260   -1.01597657    6.27252662   1      23  C
  -11.74153067   -2.54742565    6.43139982   1      24  C
   -9.40962395    0.08135980    4.86057099   2      25  H
   -9.98474228   -3.69085600    6.48650758   2      26  H
  -12.32619907   -3.36138150    6.89616855   2      27  H
  -14.30868922   -1.84875155    6.73394248   2      28  H
  -13.84459201   -0.10769205    6.90608452   2      29  H
  -14.20594400   -0.75561327    5.29640565   2      30  H

outcell: Unit cell vectors (Ang):
       17.696563    0.000000    0.000000
        0.000000   17.737093    0.000000
        0.000000    0.000000   11.879342

outcell: Cell vector modules (Ang)   :   17.696563   17.737093   11.879342
outcell: Cell angles (23,13,12) (deg):     90.0000     90.0000     90.0000
outcell: Cell volume (Ang**3)        :   3728.7543
New_DM. Step:    71
Re-using DM from previous geometry...
Re-using DM without extrapolation (not allowed)

siesta: iscf   Eharris(eV)      E_KS(eV)   FreeEng(eV)   dDmax  Ef(eV)
siesta:    1    -4488.1066    -4488.1087    -4488.1087  0.0009 -4.5036
siesta:    2    -4488.1066    -4488.1066    -4488.1066  0.0016 -4.5055
siesta:    3    -4488.1066    -4488.1079    -4488.1079  0.0003 -4.5042
siesta:    4    -4488.1065    -4488.1067    -4488.1067  0.0001 -4.5047

siesta: E_KS(eV) =            -4488.1066

siesta: Atomic forces (eV/Ang):
     1   -0.014814    0.003293    0.003447
     2   -0.011417    0.004182   -0.003534
     3    0.004131    0.001481    0.008156
     4   -0.000631    0.014326    0.004392
     5    0.010326    0.005427    0.003158
     6    0.023355   -0.008861   -0.005019
     7   -0.004737    0.002244   -0.000896
     8   -0.014423    0.015190    0.001979
     9    0.011376   -0.008559    0.006117
    10   -0.017227   -0.005531    0.004300
    11    0.014675    0.000025   -0.005148
    12   -0.004583    0.004672   -0.004131
    13    0.000901    0.013799   -0.010038
    14   -0.019190    0.002073    0.001045
    15    0.013623    0.000744   -0.000391
    16   -0.023765   -0.004413    0.000087
    17    0.014032   -0.023160   -0.003326
    18   -0.018907    0.016917    0.001261
    19   -0.009240    0.012845   -0.005786
    20    0.038226    0.000002   -0.016176
    21   -0.013990    0.027611   -0.008100
    22    0.002023   -0.012993    0.003576
    23    0.024141    0.009122   -0.006565
    24    0.003638   -0.016363    0.007055
    25    0.007394   -0.010827    0.001722
    26   -0.010755   -0.023986    0.014516
    27   -0.013106   -0.003475   -0.010369
    28    0.003243   -0.006252    0.005529
    29   -0.000361   -0.007193   -0.003365
    30    0.000892    0.000002    0.012032
----------------------------------------
   Tot   -0.005168    0.002345   -0.004471
----------------------------------------
   Max    0.038226
   Res    0.011356    sqrt( Sum f_i^2 / 3N )
----------------------------------------
   Max    0.038226    constrained

Stress-tensor-Voigt (kbar):       -0.01       -0.04       -0.01       -0.03        0.04        0.02
(Free)E + p*V (eV/cell)    -4488.0700
Target enthalpy (eV/cell)    -4488.1066

mulliken: Mulliken Atomic and Orbital Populations:

Species: C                   
Atom  Qatom  Qorb
               2s      2s      2py     2pz     2px     2py     2pz     2px     
               2Pdxy   2Pdyz   2Pdz2   2Pdxz   2Pdx2-y2
   6  4.000   0.574   0.422   0.460   0.641   0.527   0.451   0.279   0.383
              0.085   0.031   0.016   0.057   0.076
   7  3.997   0.598   0.404   0.478   0.661   0.470   0.407   0.305   0.438
              0.079   0.051   0.019   0.033   0.054
   8  4.034   0.701   0.359   0.514   0.523   0.429   0.388   0.323   0.429
              0.105   0.054   0.027   0.087   0.095
   9  3.998   0.561   0.439   0.484   0.555   0.573   0.482   0.279   0.342
              0.068   0.018   0.020   0.069   0.107
  10  4.065   0.698   0.354   0.501   0.579   0.465   0.382   0.310   0.440
              0.107   0.070   0.026   0.051   0.082
  20  4.152   0.743   0.318   0.415   0.488   0.392   0.427   0.343   0.524
              0.169   0.060   0.043   0.111   0.119
  21  4.082   0.710   0.354   0.447   0.493   0.455   0.445   0.324   0.428
              0.131   0.073   0.040   0.068   0.115
  22  3.947   0.572   0.420   0.493   0.691   0.507   0.413   0.264   0.394
              0.056   0.029   0.016   0.045   0.046
  23  3.769   0.109   0.680   0.517   0.543   0.518   0.452   0.435   0.404
              0.026   0.019   0.010   0.034   0.022
  24  3.901   0.499   0.467   0.467   0.632   0.466   0.487   0.284   0.385
              0.062   0.028   0.013   0.054   0.057

Species: H                   
Atom  Qatom  Qorb
               1s      1s      1Ppy    1Ppz    1Ppx    
  11  1.046   0.560   0.349   0.024   0.050   0.063
  12  1.090   0.682   0.322   0.034   0.040   0.013
  13  1.029   0.421   0.362   0.095   0.071   0.080
  14  1.070   0.569   0.344   0.065   0.057   0.035
  15  1.092   0.684   0.321   0.047   0.033   0.006
  25  1.063   0.403   0.370   0.113   0.072   0.104
  26  1.056   0.576   0.340   0.058   0.047   0.034
  27  1.095   0.699   0.308   0.035   0.037   0.015
  28  1.081   0.676   0.312   0.036   0.032   0.025
  29  1.068   0.654   0.319   0.039   0.032   0.024
  30  1.067   0.654   0.319   0.031   0.037   0.026

Species: N                   
Atom  Qatom  Qorb
               2s      2s      2py     2pz     2px     2py     2pz     2px     
               2Pdxy   2Pdyz   2Pdz2   2Pdxz   2Pdx2-y2
   1  4.740   0.604   0.507   0.728   1.225   0.486   0.370   0.183   0.530
              0.023   0.028   0.012   0.012   0.033
   2  5.035   0.940   0.381   0.935   1.027   1.102   0.235   0.125   0.185
              0.022   0.022   0.012   0.022   0.028
   3  4.750   0.593   0.506   0.637   1.294   0.626   0.453   0.155   0.435
              0.014   0.003   0.003   0.016   0.016
   4  4.929   0.855   0.398   0.814   1.155   0.820   0.330   0.126   0.334
              0.025   0.018   0.009   0.019   0.026
   5  5.003   0.900   0.392   0.658   1.035   1.301   0.366   0.136   0.113
              0.026   0.022   0.012   0.017   0.025
  18  4.750   0.609   0.499   0.677   1.210   0.583   0.426   0.193   0.452
              0.031   0.008   0.011   0.027   0.022
  19  4.771   0.697   0.459   0.767   1.192   0.642   0.353   0.164   0.416
              0.021   0.012   0.006   0.019   0.022

Species: O                   
Atom  Qatom  Qorb
               2s      2s      2py     2pz     2px     2py     2pz     2px     
               2Pdxy   2Pdyz   2Pdz2   2Pdxz   2Pdx2-y2
  16  6.145   1.407   0.217   1.660   1.452   1.140   0.013   0.039   0.177
              0.010   0.001   0.003   0.015   0.011
  17  6.173   1.441   0.194   1.101   1.443   1.718   0.215   0.040  -0.020
              0.009   0.012   0.005   0.004   0.011

mulliken: Qtot =       98.000

* Maximum dynamic memory allocated =   159 MB

outcoor: Relaxed atomic coordinates (Ang):                  
   -5.85839696    3.74304588    3.03032852   3       1  N
   -7.94828274    4.52319033    3.25660909   3       2  N
  -10.16903914    2.62730270    4.22325160   3       3  N
   -8.47699879    1.04427517    4.31253466   3       4  N
   -6.19308773    1.43225291    3.72716879   3       5  N
   -6.71244757    4.81460273    2.92313777   1       6  C
   -7.89665453    3.19852753    3.59743118   1       7  C
   -8.89148827    2.30187306    4.04885659   1       8  C
   -7.19503848    0.67463232    4.15081184   1       9  C
   -6.60198103    2.67935287    3.46875826   1      10  C
   -4.85605724    3.72058902    2.83084151   2      11  H
   -6.35836614    5.80275920    2.58947246   2      12  H
  -10.87364019    1.90893424    4.59309230   2      13  H
  -10.42649751    3.59494548    4.02313099   2      14  H
   -6.99661355   -0.38556911    4.42126956   2      15  H
   -8.35298501   -2.13718316    5.48689855   4      16  O
  -11.86157483    0.77277527    5.17023787   4      17  O
  -10.41624262   -2.80075495    6.22638216   3      18  N
  -10.12571228   -0.69385614    5.32189829   3      19  N
   -9.54325454   -1.88153863    5.65972827   1      20  C
  -11.43742484   -0.35718636    5.50064117   1      21  C
  -12.30913436   -1.35796495    6.08718442   1      22  C
  -13.73971260   -1.01597657    6.27252662   1      23  C
  -11.74153067   -2.54742565    6.43139982   1      24  C
   -9.40962395    0.08135980    4.86057099   2      25  H
   -9.98474228   -3.69085600    6.48650758   2      26  H
  -12.32619907   -3.36138150    6.89616855   2      27  H
  -14.30868922   -1.84875155    6.73394248   2      28  H
  -13.84459201   -0.10769205    6.90608452   2      29  H
  -14.20594400   -0.75561327    5.29640565   2      30  H

coxmol: Writing XMOL coordinates into file ade_thy_lda.DZP.xyz                                             

siesta: Eigenvalues (eV):
  ik is    eps
   1  1 -26.61 -26.20 -25.85 -24.73 -24.24 -23.42 -22.67 -22.24 -21.53 -20.16
        -19.07 -17.67 -16.88 -16.56 -16.40 -16.29 -15.89 -14.66 -14.25 -14.07
        -13.70 -13.09 -12.77 -12.34 -11.96 -11.91 -11.85 -11.43 -10.88 -10.66
        -10.50 -10.44 -10.42 -10.37  -9.84  -9.77  -9.44  -9.17  -8.77  -7.64
         -7.54  -7.23  -7.13  -6.78  -6.76  -6.31  -6.12  -5.95  -5.68  -2.27
         -1.89  -1.39  -0.96  -0.44   0.30   0.56   1.28   1.48   1.67   1.94
          2.04   2.75   2.78   2.98   3.35   3.38   3.64   3.84   4.03   4.19
          4.32   4.55   4.89   5.18   5.93   6.03   6.09   6.18   6.43   6.57
          6.86   6.93   6.96   7.09   7.25   7.32   7.35   7.72   8.12   8.49
          8.64   8.76   8.84   9.05   9.12   9.14   9.31   9.33   9.58   9.73
         10.02  10.21  10.26  10.50  10.53  10.96  11.35  11.44  11.60  11.74
         12.45  12.78  13.04  13.08  13.31  13.61  14.09  14.17  14.37  14.50
         14.65  14.73  14.83  15.39  15.55  15.79  15.81  15.91  16.05  16.19
         16.51  16.76  16.91  16.96  17.11  17.66  17.77  17.77  17.88  17.92
         18.37  18.52  18.57  18.75  18.83  19.54  19.74  19.92  20.06  20.20
         20.54  20.70  21.14  21.59  21.65  21.85  22.43  22.55  23.06  23.34
         23.96  24.09  24.11  24.68  25.11  25.38  25.76  25.99  26.34  26.60
         27.02  27.19  27.45  27.80  28.63  29.33  29.46  29.99  30.35  30.77
         31.11  31.96  32.34  32.69  32.80  33.21  33.47  33.72  34.31  34.43
         34.66  34.93  35.56  35.77  36.17  37.11  37.29  37.40  37.80  38.13
         38.33  38.99  39.17  39.63  40.40  40.57  40.84  41.31  42.01  42.12
         42.45  42.55  43.19  43.36  43.73  43.86  44.29  44.73  45.64  45.72
         45.89  46.36  47.39  47.66  48.11  48.65  48.92  49.61  49.78  50.02
         50.13  50.86  50.99  51.51  52.09  53.31  54.05  54.33  54.52  55.02
         56.07  56.15  56.45  56.83  57.40  57.92  58.25  59.36  59.92  60.11
         60.39  61.08  61.49  61.83  62.80  62.98  64.19  64.82  65.31  65.38
         65.67  66.46  66.53  67.12  67.78  69.17  70.16  71.06  71.10  71.73
         72.82  73.21  74.10  74.42  74.68  76.04  76.12  76.75  77.24  78.42
         79.72  80.84  83.37  84.44  85.59  88.04  89.41  89.74  90.17  92.26
         93.69  95.67  96.68  99.64 101.93 103.40 104.76 105.80 107.78 109.55
        110.75 115.49
siesta: Fermi energy =      -4.504663 eV

siesta: Program's energy decomposition (eV):
siesta: Ebs     =     -1351.651397
siesta: Eions   =      6885.881546
siesta: Ena     =      1214.057267
siesta: Ekin    =      3206.521202
siesta: Enl     =      -684.310078
siesta: DEna    =      -115.428937
siesta: DUscf   =        11.746085
siesta: DUext   =         0.000000
siesta: Exc     =     -1234.810569
siesta: eta*DQ  =         0.000000
siesta: Emadel  =         0.000000
siesta: Emeta   =         0.000000
siesta: Emolmec =         0.000000
siesta: Ekinion =         0.000000
siesta: Eharris =     -4488.106533
siesta: Etot    =     -4488.106576
siesta: FreeEng =     -4488.106576

siesta: Final energy (eV):
siesta:  Band Struct. =   -1351.651397
siesta:       Kinetic =    3206.521202
siesta:       Hartree =   11555.166434
siesta:    Ext. field =       0.000000
siesta:   Exch.-corr. =   -1234.810569
siesta:  Ion-electron =  -26052.673832
siesta:       Ion-ion =    8037.690190
siesta:       Ekinion =       0.000000
siesta:         Total =   -4488.106576

siesta: Stress tensor (static) (eV/Ang**3):
siesta:    -0.000003   -0.000020    0.000013
siesta:    -0.000021   -0.000023    0.000023
siesta:     0.000013    0.000023   -0.000003

siesta: Cell volume =       3728.754292 Ang**3

siesta: Pressure (static):
siesta:                Solid            Molecule  Units
siesta:           0.00000011         -0.00000006  Ry/Bohr**3
siesta:           0.00000981         -0.00000571  eV/Ang**3
siesta:           0.01571508         -0.00914427  kBar
(Free)E+ p_basis*V_orbitals  =       -4475.622643
(Free)Eharris+ p_basis*V_orbitals  =       -4475.622507

siesta: Electric dipole (a.u.)  =   -0.185417   -0.130247    0.231632
siesta: Electric dipole (Debye) =   -0.471282   -0.331056    0.588751

* Maximum dynamic memory allocated : Node    0 =   159 MB

* Maximum memory occured during poison                        

timer: CPU execution times:
timer:  Routine       Calls   Time/call    Tot.time        %
timer:  siesta            1    2918.615    2918.615   100.00
timer:  Setup             1       0.512       0.512     0.02
timer:  bands             1       0.000       0.000     0.00
timer:  writewave         1       0.004       0.004     0.00
timer:  KSV_init          1       0.000       0.000     0.00
timer:  IterMD           71      41.068    2915.834    99.90
timer:  hsparse          71       0.011       0.800     0.03
timer:  overlap          71       0.065       4.584     0.16
timer:  IterSCF         650       3.698    2403.746    82.36
timer:  kinefsm         142       0.058       8.169     0.28
timer:  nlefsm          142       0.487      69.159     2.37
timer:  DHSCF           722       3.781    2730.227    93.55
timer:  DHSCF1            1       0.092       0.092     0.00
timer:  DHSCF2           71       2.629     186.652     6.40
timer:  REORD          5920       0.005      26.862     0.92
timer:  POISON          793       0.296     234.854     8.05
timer:  DHSCF3          722       3.179    2295.097    78.64
timer:  rhoofd          722       1.730    1248.913    42.79
timer:  cellXC          722       0.141     101.540     3.48
timer:  vmat            721       0.908     654.533    22.43
timer:  MolMec          142       0.000       0.000     0.00
timer:  diagon          650       0.124      80.908     2.77
timer:  r-eigvec        650       0.118      76.568     2.62
timer:  r-buildHS       650       0.001       0.364     0.01
timer:  rdiag           650       0.117      76.201     2.61
timer:  rdiag1          650       0.005       3.402     0.12
timer:  rdiag2          650       0.015       9.675     0.33
timer:  rdiag3          650       0.079      51.371     1.76
timer:  rdiag4          650       0.018      11.657     0.40
timer:  r-buildD        650       0.006       4.135     0.14
timer:  DHSCF4           71       3.391     240.766     8.25
timer:  dfscf            71       3.062     217.396     7.45
timer:  overfsm          71       0.046       3.284     0.11
timer:  optical           1       0.000       0.000     0.00
  

elaps: ELAPSED times:
elaps:  Routine       Calls   Time/call    Tot.time        %
elaps:  siesta            1    2930.165    2930.165   100.00
elaps:  Setup             1       0.517       0.517     0.02
elaps:  bands             1       0.000       0.000     0.00
elaps:  writewave         1       0.001       0.001     0.00
elaps:  KSV_init          1       0.000       0.000     0.00
elaps:  IterMD           71      41.231    2927.373    99.90
elaps:  hsparse          71       0.012       0.817     0.03
elaps:  overlap          71       0.065       4.594     0.16
elaps:  IterSCF         650       3.713    2413.343    82.36
elaps:  kinefsm         142       0.058       8.210     0.28
elaps:  nlefsm          142       0.489      69.405     2.37
elaps:  DHSCF           722       3.796    2740.888    93.54
elaps:  DHSCF1            1       0.096       0.096     0.00
elaps:  DHSCF2           71       2.639     187.340     6.39
elaps:  REORD          5920       0.005      27.097     0.92
elaps:  POISON          793       0.298     235.933     8.05
elaps:  DHSCF3          722       3.191    2304.112    78.63
elaps:  rhoofd          722       1.737    1253.767    42.79
elaps:  cellXC          722       0.141     101.884     3.48
elaps:  vmat            721       0.911     656.953    22.42
elaps:  MolMec          142       0.000       0.001     0.00
elaps:  diagon          650       0.125      81.298     2.77
elaps:  r-eigvec        650       0.118      76.823     2.62
elaps:  r-buildHS       650       0.001       0.374     0.01
elaps:  rdiag           650       0.118      76.445     2.61
elaps:  rdiag1          650       0.005       3.376     0.12
elaps:  rdiag2          650       0.015       9.738     0.33
elaps:  rdiag3          650       0.079      51.567     1.76
elaps:  rdiag4          650       0.018      11.621     0.40
elaps:  r-buildD        650       0.007       4.272     0.15
elaps:  DHSCF4           71       3.403     241.635     8.25
elaps:  dfscf            71       3.072     218.127     7.44
elaps:  overfsm          71       0.046       3.277     0.11
elaps:  optical           1       0.000       0.000     0.00
  
>> End of run:  27-APR-2013  17:01:12

=====================================================================================
=   BAD TERMINATION OF ONE OF YOUR APPLICATION PROCESSES
=   EXIT CODE: 134
=   CLEANING UP REMAINING PROCESSES
=   YOU CAN IGNORE THE BELOW CLEANUP MESSAGES
=====================================================================================
APPLICATION TERMINATED WITH THE EXIT STRING: Aborted (signal 6)
