Siesta Version:                                        siesta-3.2
Architecture  : i686-apple-darwin10.8.0--unknown
Compiler flags: g95 -g -O2
SERIAL version

* Running in serial mode
>> Start of run:  13-MAY-2013  13:46:45

                           ***********************       
                           *  WELCOME TO SIESTA  *       
                           ***********************       

reinit: Reading from standard input
************************** Dump of input data file ****************************
# FDF for silicon
SystemName             silicon          # Descriptive name of the system
SystemLabel            si          # Short name for naming files
NumberOfAtoms 8
NumberOfSpecies 1
%block ChemicalSpeciesLabel
1 14 Si
%endblock ChemicalSpeciesLabel
LatticeConstant  5.10 Ang
##Basis set Definition##
PAO.BasisType          split        # Type of PAO basis set
PAO.EnergyShift        50 meV
PAO.BasisSize          DZP          # (DZP) Double-z + polarization
#%block LatticeVectors
#0.500 0.500 0.000
#0.500 0.000 0.500
#0.000 0.500 0.500
#%endblock LatticeVectors
AtomicCoordinatesFormat NotScaledCartesianAng
%block AtomicCoordinatesAndAtomicSpecies
	0.00000000	0.00000000	0.00000000  1 Si  1
	1.36000000	1.36000000	1.36000000  1 Si  2
	2.72000000	2.72000000	0.00000000  1 Si  3
	4.08000000	4.08000000	1.36000000  1 Si  4
	2.72000000	0.00000000	2.72000000  1 Si  5
	4.08000000	1.36000000	4.08000000  1 Si  6
	0.00000000	2.72000000	2.72000000  1 Si  7
	1.36000000	4.08000000	4.08000000  1 Si  8
%endblock AtomicCoordinatesAndAtomicSpecies
MeshCutoff 100.0 Ry # 100, 120, 180, 260
kgrid_cutoff 45.0 Bohr # 30, 35, 40, 45
Diag.Memory 1.5 # Gegen den Crash beim Konsisteztest
DM.Mixingweight  0.3
DM.NumberPulay    3
DM.Tolerance      1.d-3
DM.UseSaveDM      true
ElectronicTemperature 25 meV
SolutionMethod    diagon
XC.functional      GGA	    # Generalized Gradient Approximation
XC.authors        PBE          # Perdew-Burke-Ernzerhof
SpinPolarized     false
MD.TypeOfRun           CG           # Type of dynamics:
MD.VariableCell        true
MD.NumCGsteps          100          # Number of CG steps for coordinate optimization
MD.MaxCGDispl          0.2 Bohr     # Maximum atomic displacement
                                    #   in one CG step (Bohr)
MD.MaxForceTol         0.04 eV/Ang  # Tolerance in the maximum
                                    #   atomic force (Ry/Bohr)
				
##Output Specification##
WriteMDhistory         true         # Trajectory information
WriteCoorStep          true
WriteCoorXmol          true
WriteMDXmol            true
WriteEigenvalues true
WriteKbands      true
WriteBands       true
WriteWaveFunctions true
WriteMullikenPoP   1
%block BandLines
1	1.000	1.000 1.000 L
25	0.000	0.000	0.000 \Gamma
30	2.000	0.000	0.000 X
10	2.000	0.500	0.500 U
35	0.000	0.000	0.000 \Gamma
%endblock BandLines
%block WaveFuncKPoints
0.0 0.0 0.0 from 1 to 50 # > 16 = 4/2*8 (Valenzelektronen/2, Atomzahl ...)
%endblock WaveFuncKpoints
************************** End of input data file *****************************

reinit: -----------------------------------------------------------------------
reinit: System Name: silicon
reinit: -----------------------------------------------------------------------
reinit: System Label: si                                                          
reinit: -----------------------------------------------------------------------

initatom: Reading input for the pseudopotentials and atomic orbitals ----------
 Species number:  1  Label: Si Atomic number: 14
Ground state valence configuration:   3s02  3p02
Reading pseudopotential information in formatted form from Si.psf

Valence configuration for pseudopotential generation:
3s( 2.00) rc: 1.75
3p( 2.00) rc: 1.94
3d( 0.00) rc: 2.09
4f( 0.00) rc: 2.09
For Si, standard SIESTA heuristics set lmxkb to 3
 (one more than the basis l, including polarization orbitals).
Use PS.lmax or PS.KBprojectors blocks to override.

<basis_specs>
===============================================================================
Si                   Z=  14    Mass=  28.090        Charge= 0.17977+309
Lmxo=1 Lmxkb= 3    BasisType=split      Semic=F
L=0  Nsemic=0  Cnfigmx=3
          n=1  nzeta=2  polorb=0
            splnorm:   0.15000    
               vcte:    0.0000    
               rinn:    0.0000    
                rcs:    0.0000      0.0000    
            lambdas:    1.0000      1.0000    
L=1  Nsemic=0  Cnfigmx=3
          n=1  nzeta=2  polorb=1
            splnorm:   0.15000    
               vcte:    0.0000    
               rinn:    0.0000    
                rcs:    0.0000      0.0000    
            lambdas:    1.0000      1.0000    
-------------------------------------------------------------------------------
L=0  Nkbl=1  erefs: 0.17977+309
L=1  Nkbl=1  erefs: 0.17977+309
L=2  Nkbl=1  erefs: 0.17977+309
L=3  Nkbl=1  erefs: 0.17977+309
===============================================================================
</basis_specs>

atom: Called for Si                    (Z =  14)

read_vps: Pseudopotential generation method:
read_vps: ATM3      Troullier-Martins                       
Total valence charge:    4.00000

read_vps: Pseudopotential includes a core correction:
read_vps: Pseudo-core for xc-correction

xc_check: Exchange-correlation functional:
xc_check: GGA Perdew, Burke & Ernzerhof 1996
V l=0 = -2*Zval/r beyond r=  2.0104
V l=1 = -2*Zval/r beyond r=  2.0873
V l=2 = -2*Zval/r beyond r=  2.1670
V l=3 = -2*Zval/r beyond r=  2.1670
All V_l potentials equal beyond r=  2.0613
This should be close to max(r_c) in ps generation
All pots = -2*Zval/r beyond r=  2.1670

VLOCAL1: 99.0% of the norm of Vloc inside     10.216 Ry
VLOCAL1: 99.9% of the norm of Vloc inside     23.282 Ry
atom: Maximum radius for 4*pi*r*r*local-pseudopot. charge    2.45560
atom: Maximum radius for r*vlocal+2*Zval:    2.14012
GHOST: No ghost state for L =  0
GHOST: No ghost state for L =  1
GHOST: No ghost state for L =  2
GHOST: No ghost state for L =  3

KBgen: Kleinman-Bylander projectors: 
   l= 0   rc=  2.306811   el= -0.791441   Ekb=  5.289775   kbcos=  0.291595
   l= 1   rc=  2.394965   el= -0.300632   Ekb=  1.944256   kbcos=  0.287657
   l= 2   rc=  2.549439   el=  0.001958   Ekb= -1.788485   kbcos= -0.056492
   l= 3   rc=  2.782581   el=  0.003046   Ekb= -0.472620   kbcos= -0.006203

KBgen: Total number of  Kleinman-Bylander projectors:   16
atom: -------------------------------------------------------------------------

atom: SANKEY-TYPE ORBITALS:
atom: Selected multiple-zeta basis: split     

SPLIT: Orbitals with angular momentum L= 0

SPLIT: Basis orbitals for state 3s

SPLIT: PAO cut-off radius determined from an
SPLIT: energy shift=  0.003675 Ry

   izeta = 1
                 lambda =    1.000000
                     rc =    6.116033
                 energy =   -0.788343
                kinetic =    0.528041
    potential(screened) =   -1.316383
       potential(ionic) =   -3.704743

   izeta = 2
                 rmatch =    4.530823
              splitnorm =    0.150000
                 energy =   -0.692892
                kinetic =    0.848665
    potential(screened) =   -1.541557
       potential(ionic) =   -4.044985

SPLIT: Orbitals with angular momentum L= 1

SPLIT: Basis orbitals for state 3p

SPLIT: PAO cut-off radius determined from an
SPLIT: energy shift=  0.003675 Ry

   izeta = 1
                 lambda =    1.000000
                     rc =    7.853192
                 energy =   -0.297152
                kinetic =    0.797948
    potential(screened) =   -1.095101
       potential(ionic) =   -3.275753

   izeta = 2
                 rmatch =    5.330310
              splitnorm =    0.150000
                 energy =   -0.228170
                kinetic =    1.148579
    potential(screened) =   -1.376749
       potential(ionic) =   -3.739005

POLgen: Perturbative polarization orbital with L=  2

POLgen: Polarization orbital for state 3p

   izeta = 1
                     rc =    7.853192
                 energy =    0.340222
                kinetic =    1.096718
    potential(screened) =   -0.756496
       potential(ionic) =   -2.716423
atom: Total number of Sankey-type orbitals: 13

atm_pop: Valence configuration (for local Pseudopot. screening):
 3s( 2.00)                                                            
 3p( 2.00)                                                            
Vna: chval, zval:    4.00000   4.00000

Vna:  Cut-off radius for the neutral-atom potential:   7.853192
comcore: Pseudo-core radius Rcore=  2.999314

atom: _________________________________________________________________________

prinput: Basis input ----------------------------------------------------------

PAO.BasisType split     

%block ChemicalSpeciesLabel
    1   14 Si                      # Species index, atomic number, species label
%endblock ChemicalSpeciesLabel

%block PAO.Basis                 # Define Basis set
Si                    2                    # Species label, number of l-shells
 n=3   0   2                         # n, l, Nzeta 
   6.116      4.531   
   1.000      1.000   
 n=3   1   2 P   1                   # n, l, Nzeta, Polarization, NzetaPol
   7.853      5.330   
   1.000      1.000   
%endblock PAO.Basis

prinput: ----------------------------------------------------------------------

coor:   Atomic-coordinates input format  =     Cartesian coordinates
coor:                                          (in Angstroms)

siesta: Atomic coordinates (Bohr) and species
siesta:      0.00000   0.00000   0.00000  1        1
siesta:      2.57003   2.57003   2.57003  1        2
siesta:      5.14006   5.14006   0.00000  1        3
siesta:      7.71009   7.71009   2.57003  1        4
siesta:      5.14006   0.00000   5.14006  1        5
siesta:      7.71009   2.57003   7.71009  1        6
siesta:      0.00000   5.14006   5.14006  1        7
siesta:      2.57003   7.71009   7.71009  1        8

siesta: System type = bulk      

initatomlists: Number of atoms, orbitals, and projectors:      8   104   128

siesta: ******************** Simulation parameters ****************************
siesta:
siesta: The following are some of the parameters of the simulation.
siesta: A complete list of the parameters used, including default values,
siesta: can be found in file out.fdf
siesta:
redata: Non-Collinear-spin run           =     F
redata: SpinPolarized (Up/Down) run      =     F
redata: Number of spin components        =     1
redata: Long output                      =     F
redata: Number of Atomic Species         =        1
redata: Charge density info will appear in .RHO file
redata: Write Mulliken Pop.              =     Atomic and Orbital charges
redata: Mesh Cutoff                      =   100.0000  Ry
redata: Net charge of the system         =     0.0000 |e|
redata: Max. number of SCF Iter          =       50
redata: Performing Pulay mixing using    =     3 iterations
redata: Mix DM in first SCF step ?       =     F
redata: Write Pulay info on disk?        =     F
redata: Discard 1st Pulay DM after  kick =     F
redata: New DM Mixing Weight             =     0.3000
redata: New DM Occupancy tolerance       = 0.000000000001
redata: No kicks to SCF
redata: DM Mixing Weight for Kicks       =     0.5000
redata: DM Tolerance for SCF             =     0.001000
redata: Require Energy convergence for SCF =     F
redata: DM Energy tolerance for SCF      =     0.000100 eV
redata: Require Harris convergence for SCF =     F
redata: DM Harris energy tolerance for SCF =     0.000100 eV
redata: Using Saved Data (generic)   =     F
redata: Use continuation files for DM    =     T
redata: Neglect nonoverlap interactions  =     F
redata: Method of Calculation            =     Diagonalization
redata: Divide and Conquer               =     T
redata: Electronic Temperature           =     0.0018  Ry
redata: Fix the spin of the system       =     F
redata: Dynamics option                  =     CG coord. optimization
redata: Variable cell                    =     T
redata: Use continuation files for CG    =     F
redata: Max atomic displ per move        =     0.2000  Bohr
redata: Maximum number of CG moves       =      100
redata: Force tolerance                  =     0.0016  Ry/Bohr
redata: Stress tolerance                 =     1.0000  GPa
redata: ***********************************************************************
Total number of electrons:    32.000000
Total ionic charge:    32.000000
 Kpoints in:  500 . Kpoints trimmed:  500

siesta: k-grid: Number of k-points =   500
siesta: k-grid: Cutoff (effective) =    25.500 Ang
siesta: k-grid: Supercell and displacements
siesta: k-grid:    0  10   0      0.500
siesta: k-grid:    0   0  10      0.500
siesta: k-grid:   10   0   0      0.500
Naive supercell factors:     5    5    5

superc: Internal auxiliary supercell:     5 x     5 x     5  =     125
superc: Number of atoms, orbitals, and projectors:   1000  13000  16000

* Maximum dynamic memory allocated =     2 MB

siesta:                 ==============================
                            Begin CG move =      0
                        ==============================

outcoor: Atomic coordinates (Ang):                          
    0.00000000    0.00000000    0.00000000   1       1  Si
    1.36000000    1.36000000    1.36000000   1       2  Si
    2.72000000    2.72000000    0.00000000   1       3  Si
    4.08000000    4.08000000    1.36000000   1       4  Si
    2.72000000    0.00000000    2.72000000   1       5  Si
    4.08000000    1.36000000    4.08000000   1       6  Si
    0.00000000    2.72000000    2.72000000   1       7  Si
    1.36000000    4.08000000    4.08000000   1       8  Si

superc: Internal auxiliary supercell:     5 x     5 x     5  =     125
superc: Number of atoms, orbitals, and projectors:   1000  13000  16000

outcell: Unit cell vectors (Ang):
        5.100000    0.000000    0.000000
        0.000000    5.100000    0.000000
        0.000000    0.000000    5.100000

outcell: Cell vector modules (Ang)   :    5.100000    5.100000    5.100000
outcell: Cell angles (23,13,12) (deg):     90.0000     90.0000     90.0000
outcell: Cell volume (Ang**3)        :    132.6510
New_DM. Step:     1
Initializing Density Matrix...

InitMesh: MESH =    32 x    32 x    32 =       32768
InitMesh: Mesh cutoff (required, used) =   100.000   108.808 Ry

* Maximum dynamic memory allocated =    79 MB

stepf: Fermi-Dirac step function

siesta: Program's energy decomposition (eV):
siesta: Ebs     =      -378.616989
siesta: Eions   =      1510.441798
siesta: Ena     =       455.130393
siesta: Ekin    =       288.667622
siesta: Enl     =       166.805752
siesta: DEna    =         0.000001
siesta: DUscf   =         0.000000
siesta: DUext   =         0.000000
siesta: Exc     =      -457.041276
siesta: eta*DQ  =         0.000000
siesta: Emadel  =         0.000000
siesta: Emeta   =         0.000000
siesta: Emolmec =         0.000000
siesta: Ekinion =         0.000000
siesta: Eharris =     -1025.172157
siesta: Etot    =     -1056.879306
siesta: FreeEng =     -1056.879306

siesta: iscf   Eharris(eV)      E_KS(eV)   FreeEng(eV)   dDmax  Ef(eV)
siesta:    1    -1025.1722    -1056.8793    -1056.8793  1.6840 -5.8395
timer: Routine,Calls,Time,% = IterSCF        1      59.161  98.43
elaps: Routine,Calls,Wall,% = IterSCF        1      59.267  98.44
siesta:    2    -1024.7937    -1024.4998    -1024.5010  0.1945 -5.5209
siesta:    3    -1024.6712    -1026.9307    -1026.9328  0.1269 -5.5961
siesta:    4    -1024.6664    -1025.0357    -1025.0378  0.0262 -5.6013
siesta:    5    -1024.6659    -1024.7125    -1024.7146  0.0069 -5.6030
siesta:    6    -1024.6658    -1024.7340    -1024.7361  0.0056 -5.6050
siesta:    7    -1024.6658    -1024.7251    -1024.7272  0.0042 -5.6053
siesta:    8    -1024.6657    -1024.6980    -1024.7001  0.0020 -5.6050
siesta:    9    -1024.6657    -1024.6816    -1024.6838  0.0009 -5.6048

siesta: E_KS(eV) =            -1024.6685

siesta: E_KS - E_eggbox =     -1024.6685

siesta: Atomic forces (eV/Ang):
----------------------------------------
   Tot   -0.001042   -0.001040   -0.001052
----------------------------------------
   Max    3.960396
   Res    2.645112    sqrt( Sum f_i^2 / 3N )
----------------------------------------
   Max    3.960396    constrained

Stress-tensor-Voigt (kbar):     -372.04     -372.04     -372.04      103.16      103.16      103.16
(Free)E + p*V (eV/cell)     -993.8679
Target enthalpy (eV/cell)    -1024.6706

siesta: Stress tensor (static) (eV/Ang**3):
        -0.232209    0.064385    0.064385
         0.064385   -0.232209    0.064385
         0.064385    0.064385   -0.232209

siesta: Pressure (static):        372.04341492  kBar

siesta: Stress tensor (total) (eV/Ang**3):
        -0.232209    0.064385    0.064385
         0.064385   -0.232209    0.064385
         0.064385    0.064385   -0.232209

siesta: Pressure (total):        372.04341492  kBar

mulliken: Mulliken Atomic and Orbital Populations:

Species: Si                  
Atom  Qatom  Qorb
               3s      3s      3py     3pz     3px     3py     3pz     3px     
               3Pdxy   3Pdyz   3Pdz2   3Pdxz   3Pdx2-y2
   1  4.234   0.234   0.818   0.066   0.066   0.066   0.717   0.717   0.717
              0.180   0.180   0.147   0.180   0.147
   2  3.867   0.631   0.593   0.070   0.070   0.070   0.621   0.621   0.621
              0.136   0.136   0.081   0.136   0.081
   3  3.922   0.501   0.654   0.019   0.116   0.019   0.677   0.620   0.677
              0.157   0.144   0.085   0.144   0.108
   4  4.044   0.378   0.722   0.079  -0.032   0.079   0.678   0.742   0.678
              0.157   0.162   0.137   0.162   0.101
   5  3.922   0.501   0.654   0.116   0.019   0.019   0.620   0.677   0.677
              0.144   0.144   0.103   0.157   0.091
   6  4.044   0.378   0.722  -0.032   0.079   0.079   0.742   0.678   0.678
              0.162   0.162   0.110   0.157   0.128
   7  3.922   0.501   0.654   0.019   0.019   0.116   0.677   0.677   0.620
              0.144   0.157   0.103   0.144   0.091
   8  4.044   0.378   0.722   0.079   0.079  -0.032   0.678   0.678   0.742
              0.162   0.157   0.110   0.162   0.128

mulliken: Qtot =       32.000

cgvc: No target stress found, assuming hydrostatic MD.TargetPressure.

cgvc: Target stress (kBar)
cgvc:        -0.000       0.000       0.000
cgvc:         0.000      -0.000       0.000
cgvc:         0.000       0.000      -0.000

* Maximum dynamic memory allocated =    80 MB

siesta:                 ==============================
                            Begin CG move =      1
                        ==============================

outcoor: Atomic coordinates (Ang):                          
    0.01881550    0.01881546    0.01881539   1       1  Si
    1.36764182    1.36764181    1.36764187   1       2  Si
    2.73186407    2.73186407    0.00637647   1       3  Si
    4.07491354    4.07491355    1.36922204   1       4  Si
    2.73186407    0.00637644    2.73186412   1       5  Si
    4.07491360    1.36922206    4.07491356   1       6  Si
    0.00637642    2.73186405    2.73186411   1       7  Si
    1.36922205    4.07491361    4.07491358   1       8  Si
 Kpoints in:  500 . Kpoints trimmed:  500

siesta: k-grid: Number of k-points =   500
siesta: k-grid: Cutoff (effective) =    25.695 Ang
siesta: k-grid: Supercell and displacements
siesta: k-grid:    0  10   0      0.500
siesta: k-grid:   10   0   0      0.500
siesta: k-grid:    0   0  10      0.500
Naive supercell factors:     5    5    5

superc: Internal auxiliary supercell:     5 x     5 x     5  =     125
superc: Number of atoms, orbitals, and projectors:   1000  13000  16000

outcell: Unit cell vectors (Ang):
        5.139017   -0.010818   -0.010818
       -0.010818    5.139017   -0.010818
       -0.010818   -0.010818    5.139017

outcell: Cell vector modules (Ang)   :    5.139040    5.139040    5.139040
outcell: Cell angles (23,13,12) (deg):     90.2410     90.2410     90.2410
outcell: Cell volume (Ang**3)        :    135.7171
New_DM. Step:     2
Re-using DM from previous geometry...
Re-using DM without extrapolation (not allowed)
Density Matrix sparsity pattern changed.

InitMesh: MESH =    32 x    32 x    32 =       32768
InitMesh: Mesh cutoff (required, used) =   100.000   107.165 Ry

siesta: iscf   Eharris(eV)      E_KS(eV)   FreeEng(eV)   dDmax  Ef(eV)
siesta:    1    -1026.3403    -1025.0109    -1025.0130  0.0570 -5.5295
siesta:    2    -1026.3636    -1026.3155    -1026.3166  0.0309 -5.4863
siesta:    3    -1026.3318    -1026.2568    -1026.2579  0.0054 -5.5105
siesta:    4    -1026.3315    -1026.3137    -1026.3148  0.0006 -5.5132

siesta: E_KS(eV) =            -1026.3231

siesta: Atomic forces (eV/Ang):
----------------------------------------
   Tot   -0.011360   -0.011363   -0.011349
----------------------------------------
   Max    2.955109
   Res    2.031794    sqrt( Sum f_i^2 / 3N )
----------------------------------------
   Max    2.955109    constrained

Stress-tensor-Voigt (kbar):     -310.03     -310.03     -310.03       70.34       70.34       70.34
(Free)E + p*V (eV/cell)    -1000.0623
Target enthalpy (eV/cell)    -1026.3242

siesta: Stress tensor (static) (eV/Ang**3):
        -0.193505    0.043901    0.043901
         0.043901   -0.193505    0.043901
         0.043901    0.043901   -0.193505

siesta: Pressure (static):        310.03268445  kBar

siesta: Stress tensor (total) (eV/Ang**3):
        -0.193505    0.043901    0.043901
         0.043901   -0.193505    0.043901
         0.043901    0.043901   -0.193505

siesta: Pressure (total):        310.03268445  kBar

mulliken: Mulliken Atomic and Orbital Populations:

Species: Si                  
Atom  Qatom  Qorb
               3s      3s      3py     3pz     3px     3py     3pz     3px     
               3Pdxy   3Pdyz   3Pdz2   3Pdxz   3Pdx2-y2
   1  4.157   0.309   0.764   0.059   0.059   0.059   0.710   0.710   0.710
              0.172   0.172   0.130   0.172   0.130
   2  3.887   0.632   0.587   0.092   0.092   0.092   0.611   0.611   0.611
              0.134   0.134   0.080   0.134   0.080
   3  3.949   0.517   0.640   0.049   0.125   0.049   0.663   0.617   0.663
              0.153   0.143   0.085   0.143   0.103
   4  4.036   0.411   0.699   0.094  -0.013   0.094   0.664   0.728   0.664
              0.153   0.159   0.127   0.159   0.097
   5  3.949   0.517   0.640   0.125   0.049   0.049   0.617   0.663   0.663
              0.143   0.143   0.099   0.153   0.089
   6  4.036   0.411   0.699  -0.013   0.094   0.094   0.728   0.664   0.664
              0.159   0.159   0.104   0.153   0.120
   7  3.949   0.517   0.640   0.049   0.049   0.125   0.663   0.663   0.617
              0.143   0.153   0.099   0.143   0.089
   8  4.036   0.411   0.699   0.094   0.094  -0.013   0.664   0.664   0.728
              0.159   0.153   0.104   0.159   0.120

mulliken: Qtot =       32.000

* Maximum dynamic memory allocated =    91 MB

siesta:                 ==============================
                            Begin CG move =      2
                        ==============================

outcoor: Atomic coordinates (Ang):                          
    0.04918613    0.04918605    0.04918587   1       1  Si
    1.37991121    1.37991119    1.37991134   1       2  Si
    2.75061803    2.75061804    0.01719933   1       3  Si
    4.06606927    4.06606930    1.38491735   1       4  Si
    2.75061802    0.01719926    2.75061815   1       5  Si
    4.06606943    1.38491740    4.06606933   1       6  Si
    0.01719921    2.75061798    2.75061812   1       7  Si
    1.38491739    4.06606946    4.06606936   1       8  Si
 Kpoints in:  500 . Kpoints trimmed:  500

siesta: k-grid: Number of k-points =   500
siesta: k-grid: Cutoff (effective) =    26.008 Ang
siesta: k-grid: Supercell and displacements
siesta: k-grid:    0  10   0      0.500
siesta: k-grid:   10   0   0      0.500
siesta: k-grid:    0   0  10      0.500
Naive supercell factors:     5    5    5

superc: Internal auxiliary supercell:     5 x     5 x     5  =     125
superc: Number of atoms, orbitals, and projectors:   1000  13000  16000

outcell: Unit cell vectors (Ang):
        5.201445   -0.028128   -0.028128
       -0.028128    5.201445   -0.028128
       -0.028128   -0.028128    5.201445

outcell: Cell vector modules (Ang)   :    5.201597    5.201597    5.201597
outcell: Cell angles (23,13,12) (deg):     90.6180     90.6180     90.6180
outcell: Cell volume (Ang**3)        :    140.7128
New_DM. Step:     3
Re-using DM from previous geometry...
Re-using DM without extrapolation (not allowed)
Density Matrix sparsity pattern changed.

InitMesh: MESH =    32 x    32 x    32 =       32768
InitMesh: Mesh cutoff (required, used) =   100.000   104.624 Ry

siesta: iscf   Eharris(eV)      E_KS(eV)   FreeEng(eV)   dDmax  Ef(eV)
siesta:    1    -1028.2847    -1026.3451    -1026.3461  0.0822 -5.4276
siesta:    2    -1028.3862    -1028.1798    -1028.1804  0.0622 -5.3706
siesta:    3    -1028.2498    -1028.0229    -1028.0235  0.0137 -5.4017
siesta:    4    -1028.2490    -1028.2127    -1028.2133  0.0005 -5.4050

siesta: E_KS(eV) =            -1028.2244

siesta: Atomic forces (eV/Ang):
----------------------------------------
   Tot   -0.003808   -0.003807   -0.003820
----------------------------------------
   Max    1.996469
   Res    1.228983    sqrt( Sum f_i^2 / 3N )
----------------------------------------
   Max    1.996469    constrained

Stress-tensor-Voigt (kbar):     -228.53     -228.53     -228.53       26.65       26.65       26.65
(Free)E + p*V (eV/cell)    -1008.1540
Target enthalpy (eV/cell)    -1028.2251

siesta: Stress tensor (static) (eV/Ang**3):
        -0.142638    0.016633    0.016633
         0.016633   -0.142638    0.016633
         0.016633    0.016633   -0.142638

siesta: Pressure (static):        228.53422294  kBar

siesta: Stress tensor (total) (eV/Ang**3):
        -0.142638    0.016633    0.016633
         0.016633   -0.142638    0.016633
         0.016633    0.016633   -0.142638

siesta: Pressure (total):        228.53422294  kBar

mulliken: Mulliken Atomic and Orbital Populations:

Species: Si                  
Atom  Qatom  Qorb
               3s      3s      3py     3pz     3px     3py     3pz     3px     
               3Pdxy   3Pdyz   3Pdz2   3Pdxz   3Pdx2-y2
   1  4.067   0.402   0.702   0.077   0.077   0.077   0.680   0.680   0.680
              0.158   0.158   0.109   0.158   0.109
   2  3.929   0.625   0.585   0.123   0.123   0.123   0.599   0.599   0.599
              0.132   0.132   0.078   0.132   0.078
   3  3.979   0.532   0.630   0.088   0.135   0.088   0.642   0.614   0.642
              0.147   0.140   0.085   0.140   0.096
   4  4.022   0.454   0.671   0.117   0.020   0.117   0.642   0.701   0.642
              0.147   0.154   0.112   0.154   0.091
   5  3.979   0.532   0.630   0.135   0.088   0.088   0.614   0.642   0.642
              0.140   0.140   0.093   0.147   0.087
   6  4.022   0.454   0.671   0.020   0.117   0.117   0.701   0.642   0.642
              0.154   0.154   0.096   0.147   0.106
   7  3.979   0.532   0.630   0.088   0.088   0.135   0.642   0.642   0.614
              0.140   0.147   0.093   0.140   0.087
   8  4.022   0.454   0.671   0.117   0.117   0.020   0.642   0.642   0.701
              0.154   0.147   0.096   0.154   0.106

mulliken: Qtot =       32.000

* Maximum dynamic memory allocated =    91 MB

siesta:                 ==============================
                            Begin CG move =      3
                        ==============================

outcoor: Atomic coordinates (Ang):                          
    0.09845971    0.09845954    0.09845917   1       1  Si
    1.39965100    1.39965096    1.39965127   1       2  Si
    2.78003927    2.78003929    0.03610442   1       3  Si
    4.05011123    4.05011129    1.41243638   1       4  Si
    2.78003925    0.03610428    2.78003951   1       5  Si
    4.05011154    1.41243650    4.05011133   1       6  Si
    0.03610417    2.78003917    2.78003945   1       7  Si
    1.41243648    4.05011160    4.05011141   1       8  Si
 Kpoints in:  405 . Kpoints trimmed:  365

siesta: k-grid: Number of k-points =   365
siesta: k-grid: Cutoff (effective) =    23.859 Ang
siesta: k-grid: Supercell and displacements
siesta: k-grid:    0   9   0      0.000
siesta: k-grid:    9   0   0      0.000
siesta: k-grid:    0   0   9      0.000
Naive supercell factors:     5    5    5

superc: Internal auxiliary supercell:     5 x     5 x     5  =     125
superc: Number of atoms, orbitals, and projectors:   1000  13000  16000

outcell: Unit cell vectors (Ang):
        5.301328   -0.055823   -0.055822
       -0.055823    5.301328   -0.055823
       -0.055822   -0.055823    5.301329

outcell: Cell vector modules (Ang)   :    5.301916    5.301916    5.301916
outcell: Cell angles (23,13,12) (deg):     91.2001     91.2001     91.2001
outcell: Cell volume (Ang**3)        :    148.9391
New_DM. Step:     4
Re-using DM from previous geometry...
Re-using DM without extrapolation (not allowed)
Density Matrix sparsity pattern changed.

InitMesh: MESH =    32 x    32 x    32 =       32768
InitMesh: Mesh cutoff (required, used) =   100.000   100.769 Ry

siesta: iscf   Eharris(eV)      E_KS(eV)   FreeEng(eV)   dDmax  Ef(eV)
siesta:    1    -1029.8931    -1027.2334    -1027.2340  0.0828 -5.3494
siesta:    2    -1030.3391    -1029.4253    -1029.4253  0.1070 -5.3477
siesta:    3    -1029.7373    -1029.1053    -1029.1053  0.0316 -5.3299
siesta:    4    -1029.7347    -1029.6321    -1029.6321  0.0019 -5.3346
siesta:    5    -1029.7347    -1029.6637    -1029.6637  0.0011 -5.3337
siesta:    6    -1029.7347    -1029.7189    -1029.7189  0.0005 -5.3325

siesta: E_KS(eV) =            -1029.7302

siesta: Atomic forces (eV/Ang):
----------------------------------------
   Tot    0.000640    0.000642    0.000656
----------------------------------------
   Max    0.894994
   Res    0.595645    sqrt( Sum f_i^2 / 3N )
----------------------------------------
   Max    0.894994    constrained

Stress-tensor-Voigt (kbar):     -136.63     -136.63     -136.63      -23.14      -23.14      -23.14
(Free)E + p*V (eV/cell)    -1017.0291
Target enthalpy (eV/cell)    -1029.7302

siesta: Stress tensor (static) (eV/Ang**3):
        -0.085277   -0.014443   -0.014443
        -0.014443   -0.085277   -0.014443
        -0.014443   -0.014443   -0.085277

siesta: Pressure (static):        136.63074078  kBar

siesta: Stress tensor (total) (eV/Ang**3):
        -0.085277   -0.014443   -0.014443
        -0.014443   -0.085277   -0.014443
        -0.014443   -0.014443   -0.085277

siesta: Pressure (total):        136.63074078  kBar

mulliken: Mulliken Atomic and Orbital Populations:

Species: Si                  
Atom  Qatom  Qorb
               3s      3s      3py     3pz     3px     3py     3pz     3px     
               3Pdxy   3Pdyz   3Pdz2   3Pdxz   3Pdx2-y2
   1  3.998   0.553   0.617   0.146   0.146   0.146   0.604   0.604   0.604
              0.136   0.136   0.085   0.136   0.085
   2  3.979   0.616   0.584   0.164   0.164   0.164   0.581   0.581   0.581
              0.130   0.130   0.078   0.130   0.078
   3  4.000   0.541   0.623   0.147   0.139   0.147   0.604   0.610   0.604
              0.137   0.137   0.086   0.137   0.085
   4  4.008   0.520   0.635   0.155   0.100   0.155   0.604   0.638   0.604
              0.138   0.141   0.093   0.141   0.084
   5  4.000   0.541   0.623   0.139   0.147   0.147   0.610   0.604   0.604
              0.137   0.137   0.085   0.137   0.086
   6  4.008   0.520   0.635   0.100   0.155   0.155   0.638   0.604   0.604
              0.141   0.141   0.086   0.138   0.091
   7  4.000   0.541   0.623   0.147   0.147   0.139   0.604   0.604   0.610
              0.137   0.137   0.085   0.137   0.086
   8  4.008   0.520   0.635   0.155   0.155   0.100   0.604   0.604   0.638
              0.141   0.138   0.086   0.141   0.091

mulliken: Qtot =       32.000

* Maximum dynamic memory allocated =    91 MB

siesta:                 ==============================
                            Begin CG move =      4
                        ==============================

outcoor: Atomic coordinates (Ang):                          
    0.15265522    0.15265496    0.15265438   1       1  Si
    1.42113581    1.42113574    1.42113622   1       2  Si
    2.81102731    2.81102735    0.05873494   1       3  Si
    4.03036316    4.03036326    1.44550870   1       4  Si
    2.81102728    0.05873472    2.81102768   1       5  Si
    4.03036364    1.44550890    4.03036331   1       6  Si
    0.05873456    2.81102715    2.81102760   1       7  Si
    1.44550886    4.03036374    4.03036343   1       8  Si
 Kpoints in:  405 . Kpoints trimmed:  365

siesta: k-grid: Number of k-points =   365
siesta: k-grid: Cutoff (effective) =    24.348 Ang
siesta: k-grid: Supercell and displacements
siesta: k-grid:    0   9   0      0.000
siesta: k-grid:    9   0   0      0.000
siesta: k-grid:    0   0   9      0.000
Naive supercell factors:     5    5    5

superc: Internal auxiliary supercell:     5 x     5 x     5  =     125
superc: Number of atoms, orbitals, and projectors:   1000  13000  16000

outcell: Unit cell vectors (Ang):
        5.409281   -0.085755   -0.085754
       -0.085755    5.409281   -0.085754
       -0.085754   -0.085754    5.409281

outcell: Cell vector modules (Ang)   :    5.410640    5.410640    5.410640
outcell: Cell angles (23,13,12) (deg):     91.8016     91.8016     91.8016
outcell: Cell volume (Ang**3)        :    158.1567
New_DM. Step:     5
Re-using DM from previous geometry...
Re-using DM without extrapolation (not allowed)
Density Matrix sparsity pattern changed.

InitMesh: MESH =    36 x    36 x    36 =       46656
InitMesh: Mesh cutoff (required, used) =   100.000   122.602 Ry

siesta: iscf   Eharris(eV)      E_KS(eV)   FreeEng(eV)   dDmax  Ef(eV)
siesta:    1    -1029.8975    -1027.8341    -1027.8341  0.0664 -5.2191
siesta:    2    -1030.7089    -1029.0765    -1029.0766  0.1065 -5.2738
siesta:    3    -1029.6214    -1028.9002    -1028.9011  0.0345 -5.2473
siesta:    4    -1029.6204    -1029.4547    -1029.4549  0.0036 -5.2526
siesta:    5    -1029.6202    -1029.5208    -1029.5210  0.0018 -5.2528
siesta:    6    -1029.6202    -1029.5857    -1029.5859  0.0004 -5.2522

siesta: E_KS(eV) =            -1029.6000

siesta: Atomic forces (eV/Ang):
----------------------------------------
   Tot   -0.000117   -0.000101   -0.000114
----------------------------------------
   Max    1.797422
   Res    1.253310    sqrt( Sum f_i^2 / 3N )
----------------------------------------
   Max    1.797422    constrained

Stress-tensor-Voigt (kbar):      -75.32      -75.32      -75.32      -60.56      -60.56      -60.56
(Free)E + p*V (eV/cell)    -1022.1652
Target enthalpy (eV/cell)    -1029.6001

siesta: Stress tensor (static) (eV/Ang**3):
        -0.047010   -0.037797   -0.037797
        -0.037797   -0.047010   -0.037797
        -0.037797   -0.037797   -0.047010

siesta: Pressure (static):         75.31911410  kBar

siesta: Stress tensor (total) (eV/Ang**3):
        -0.047010   -0.037797   -0.037797
        -0.037797   -0.047010   -0.037797
        -0.037797   -0.037797   -0.047010

siesta: Pressure (total):         75.31911410  kBar

mulliken: Mulliken Atomic and Orbital Populations:

Species: Si                  
Atom  Qatom  Qorb
               3s      3s      3py     3pz     3px     3py     3pz     3px     
               3Pdxy   3Pdyz   3Pdz2   3Pdxz   3Pdx2-y2
   1  4.008   0.701   0.545   0.251   0.251   0.251   0.509   0.509   0.509
              0.115   0.115   0.067   0.115   0.067
   2  4.003   0.577   0.608   0.193   0.193   0.193   0.565   0.565   0.565
              0.129   0.129   0.079   0.129   0.079
   3  4.002   0.539   0.625   0.202   0.129   0.202   0.564   0.610   0.564
              0.129   0.135   0.091   0.135   0.075
   4  3.995   0.578   0.605   0.193   0.192   0.193   0.565   0.566   0.565
              0.128   0.127   0.080   0.127   0.078
   5  4.002   0.539   0.625   0.129   0.202   0.202   0.610   0.564   0.564
              0.135   0.135   0.079   0.129   0.087
   6  3.995   0.578   0.605   0.192   0.193   0.193   0.566   0.565   0.565
              0.127   0.127   0.079   0.128   0.079
   7  4.002   0.539   0.625   0.202   0.202   0.129   0.564   0.564   0.610
              0.135   0.129   0.079   0.135   0.087
   8  3.995   0.578   0.605   0.193   0.193   0.192   0.565   0.565   0.566
              0.127   0.128   0.079   0.127   0.079

mulliken: Qtot =       32.000

* Maximum dynamic memory allocated =    91 MB

siesta:                 ==============================
                            Begin CG move =      5
                        ==============================

outcoor: Atomic coordinates (Ang):                          
    0.12660960    0.12660938    0.12660890   1       1  Si
    1.41083939    1.41083933    1.41083973   1       2  Si
    2.79630962    2.79630965    0.04762507   1       3  Si
    4.04013349    4.04013357    1.42925743   1       4  Si
    2.79630960    0.04762488    2.79630993   1       5  Si
    4.04013388    1.42925759    4.04013361   1       6  Si
    0.04762475    2.79630949    2.79630986   1       7  Si
    1.42925756    4.04013396    4.04013371   1       8  Si
 Kpoints in:  405 . Kpoints trimmed:  365

siesta: k-grid: Number of k-points =   365
siesta: k-grid: Cutoff (effective) =    24.114 Ang
siesta: k-grid: Supercell and displacements
siesta: k-grid:    0   9   0      0.000
siesta: k-grid:    9   0   0      0.000
siesta: k-grid:    0   0   9      0.000
Naive supercell factors:     5    5    5

superc: Internal auxiliary supercell:     5 x     5 x     5  =     125
superc: Number of atoms, orbitals, and projectors:   1000  13000  16000

outcell: Unit cell vectors (Ang):
        5.357643   -0.071437   -0.071437
       -0.071437    5.357643   -0.071437
       -0.071437   -0.071437    5.357643

outcell: Cell vector modules (Ang)   :    5.358596    5.358596    5.358596
outcell: Cell angles (23,13,12) (deg):     91.5174     91.5174     91.5174
outcell: Cell volume (Ang**3)        :    153.7049
New_DM. Step:     6
Re-using DM from previous geometry...
Re-using DM without extrapolation (not allowed)
Density Matrix sparsity pattern changed.

InitMesh: MESH =    36 x    36 x    36 =       46656
InitMesh: Mesh cutoff (required, used) =   100.000   124.920 Ry

siesta: iscf   Eharris(eV)      E_KS(eV)   FreeEng(eV)   dDmax  Ef(eV)
siesta:    1    -1029.9164    -1030.4757    -1030.4759  0.0267 -5.3081
siesta:    2    -1030.0759    -1029.7473    -1029.7473  0.0591 -5.2838
siesta:    3    -1029.8588    -1029.9910    -1029.9910  0.0139 -5.2930
siesta:    4    -1029.8584    -1029.8317    -1029.8317  0.0020 -5.2920
siesta:    5    -1029.8584    -1029.8378    -1029.8378  0.0012 -5.2916
siesta:    6    -1029.8584    -1029.8526    -1029.8526  0.0003 -5.2912

siesta: E_KS(eV) =            -1029.8556

siesta: Atomic forces (eV/Ang):
----------------------------------------
   Tot   -0.011290   -0.011282   -0.011288
----------------------------------------
   Max    1.120991
   Res    0.859541    sqrt( Sum f_i^2 / 3N )
----------------------------------------
   Max    1.120991    constrained

Stress-tensor-Voigt (kbar):     -100.22     -100.22     -100.22      -44.22      -44.22      -44.22
(Free)E + p*V (eV/cell)    -1020.2415
Target enthalpy (eV/cell)    -1029.8556

siesta: Stress tensor (static) (eV/Ang**3):
        -0.062549   -0.027598   -0.027598
        -0.027598   -0.062549   -0.027598
        -0.027598   -0.027598   -0.062549

siesta: Pressure (static):        100.21582090  kBar

siesta: Stress tensor (total) (eV/Ang**3):
        -0.062549   -0.027598   -0.027598
        -0.027598   -0.062549   -0.027598
        -0.027598   -0.027598   -0.062549

siesta: Pressure (total):        100.21582090  kBar

mulliken: Mulliken Atomic and Orbital Populations:

Species: Si                  
Atom  Qatom  Qorb
               3s      3s      3py     3pz     3px     3py     3pz     3px     
               3Pdxy   3Pdyz   3Pdz2   3Pdxz   3Pdx2-y2
   1  3.990   0.630   0.579   0.195   0.195   0.195   0.557   0.557   0.557
              0.125   0.125   0.075   0.125   0.075
   2  3.991   0.600   0.594   0.182   0.182   0.182   0.570   0.570   0.570
              0.129   0.129   0.078   0.129   0.078
   3  4.004   0.543   0.622   0.179   0.135   0.179   0.582   0.611   0.582
              0.133   0.136   0.088   0.136   0.080
   4  4.002   0.555   0.616   0.174   0.151   0.174   0.584   0.599   0.584
              0.132   0.134   0.085   0.134   0.081
   5  4.004   0.543   0.622   0.135   0.179   0.179   0.611   0.582   0.582
              0.136   0.136   0.082   0.133   0.086
   6  4.002   0.555   0.616   0.151   0.174   0.174   0.599   0.584   0.584
              0.134   0.134   0.082   0.132   0.084
   7  4.004   0.543   0.622   0.179   0.179   0.135   0.582   0.582   0.611
              0.136   0.133   0.082   0.136   0.086
   8  4.002   0.555   0.616   0.174   0.174   0.151   0.584   0.584   0.599
              0.134   0.132   0.082   0.134   0.084

mulliken: Qtot =       32.000

cgvc: Finished line minimization    1.  Mean atomic displacement =    0.1583

* Maximum dynamic memory allocated =    91 MB

siesta:                 ==============================
                            Begin CG move =      6
                        ==============================

outcoor: Atomic coordinates (Ang):                          
    0.10616162    0.10616157    0.10616113   1       1  Si
    1.48995744    1.48995739    1.48995801   1       2  Si
    2.82501688    2.82501695    0.10160729   1       3  Si
    4.17882100    4.17882105    1.49126229   1       4  Si
    2.82501717    0.10160700    2.82501721   1       5  Si
    4.17882082    1.49126260    4.17882062   1       6  Si
    0.10160699    2.82501725    2.82501733   1       7  Si
    1.49126243    4.17882085    4.17882066   1       8  Si
 Kpoints in:  405 . Kpoints trimmed:  365

siesta: k-grid: Number of k-points =   365
siesta: k-grid: Cutoff (effective) =    24.597 Ang
siesta: k-grid: Supercell and displacements
siesta: k-grid:    0   9   0      0.000
siesta: k-grid:    9   0   0      0.000
siesta: k-grid:    0   0   9      0.000
Naive supercell factors:     5    5    5

superc: Internal auxiliary supercell:     5 x     5 x     5  =     125
superc: Number of atoms, orbitals, and projectors:   1000  13000  16000

outcell: Unit cell vectors (Ang):
        5.465595   -0.045736   -0.045736
       -0.045736    5.465595   -0.045736
       -0.045736   -0.045736    5.465596

outcell: Cell vector modules (Ang)   :    5.465978    5.465978    5.465978
outcell: Cell angles (23,13,12) (deg):     90.9548     90.9548     90.9548
outcell: Cell volume (Ang**3)        :    163.2378
New_DM. Step:     7
Re-using DM from previous geometry...
Re-using DM without extrapolation (not allowed)
Density Matrix sparsity pattern changed.

InitMesh: MESH =    36 x    36 x    36 =       46656
InitMesh: Mesh cutoff (required, used) =   100.000   119.954 Ry

siesta: iscf   Eharris(eV)      E_KS(eV)   FreeEng(eV)   dDmax  Ef(eV)
siesta:    1    -1030.5652    -1028.5470    -1028.5470  0.0630 -5.0206
siesta:    2    -1030.6572    -1030.4623    -1030.4623  0.0609 -5.0120
siesta:    3    -1030.5291    -1030.3477    -1030.3477  0.0073 -5.0215
siesta:    4    -1030.5283    -1030.5037    -1030.5037  0.0018 -5.0240
siesta:    5    -1030.5282    -1030.5146    -1030.5147  0.0011 -5.0243
siesta:    6    -1030.5282    -1030.5206    -1030.5206  0.0003 -5.0246

siesta: E_KS(eV) =            -1030.5227

siesta: Atomic forces (eV/Ang):
----------------------------------------
   Tot   -0.006128   -0.006134   -0.006153
----------------------------------------
   Max    0.644773
   Res    0.340942    sqrt( Sum f_i^2 / 3N )
----------------------------------------
   Max    0.644773    constrained

Stress-tensor-Voigt (kbar):      -26.37      -26.37      -26.37       -6.27       -6.27       -6.27
(Free)E + p*V (eV/cell)    -1027.8365
Target enthalpy (eV/cell)    -1030.5227

siesta: Stress tensor (static) (eV/Ang**3):
        -0.016456   -0.003916   -0.003916
        -0.003916   -0.016456   -0.003916
        -0.003916   -0.003916   -0.016456

siesta: Pressure (static):         26.36618406  kBar

siesta: Stress tensor (total) (eV/Ang**3):
        -0.016456   -0.003916   -0.003916
        -0.003916   -0.016456   -0.003916
        -0.003916   -0.003916   -0.016456

siesta: Pressure (total):         26.36618406  kBar

mulliken: Mulliken Atomic and Orbital Populations:

Species: Si                  
Atom  Qatom  Qorb
               3s      3s      3py     3pz     3px     3py     3pz     3px     
               3Pdxy   3Pdyz   3Pdz2   3Pdxz   3Pdx2-y2
   1  3.996   0.674   0.555   0.244   0.244   0.244   0.517   0.517   0.517
              0.117   0.117   0.068   0.117   0.068
   2  4.005   0.604   0.589   0.217   0.217   0.217   0.546   0.546   0.546
              0.125   0.125   0.075   0.125   0.075
   3  4.003   0.599   0.592   0.224   0.198   0.224   0.541   0.558   0.541
              0.123   0.126   0.078   0.126   0.073
   4  3.997   0.621   0.581   0.221   0.226   0.221   0.539   0.535   0.539
              0.123   0.122   0.073   0.122   0.074
   5  4.003   0.599   0.592   0.198   0.224   0.224   0.558   0.541   0.541
              0.126   0.126   0.074   0.123   0.077
   6  3.997   0.621   0.581   0.226   0.221   0.221   0.535   0.539   0.539
              0.122   0.122   0.073   0.123   0.073
   7  4.003   0.599   0.592   0.224   0.224   0.198   0.541   0.541   0.558
              0.126   0.123   0.074   0.126   0.077
   8  3.997   0.621   0.581   0.221   0.221   0.226   0.539   0.539   0.535
              0.122   0.123   0.073   0.122   0.073

mulliken: Qtot =       32.000

* Maximum dynamic memory allocated =    91 MB

siesta:                 ==============================
                            Begin CG move =      7
                        ==============================

outcoor: Atomic coordinates (Ang):                          
    0.08427154    0.08427167    0.08427127   1       1  Si
    1.57121076    1.57121071    1.57121156   1       2  Si
    2.85185330    2.85185342    0.15571605   1       3  Si
    4.31884231    4.31884233    1.55349275   1       4  Si
    2.85185392    0.15571563    2.85185365   1       5  Si
    4.31884152    1.55349322    4.31884139   1       6  Si
    0.15571577    2.85185421    2.85185398   1       7  Si
    1.55349289    4.31884149    4.31884137   1       8  Si
 Kpoints in:  405 . Kpoints trimmed:  365

siesta: k-grid: Number of k-points =   365
siesta: k-grid: Cutoff (effective) =    25.081 Ang
siesta: k-grid: Supercell and displacements
siesta: k-grid:    0   9   0      0.000
siesta: k-grid:    9   0   0      0.000
siesta: k-grid:    0   0   9      0.000
Naive supercell factors:     5    5    5

superc: Internal auxiliary supercell:     5 x     5 x     5  =     125
superc: Number of atoms, orbitals, and projectors:   1000  13000  16000

outcell: Unit cell vectors (Ang):
        5.573547   -0.020035   -0.020035
       -0.020035    5.573547   -0.020035
       -0.020035   -0.020035    5.573548

outcell: Cell vector modules (Ang)   :    5.573619    5.573619    5.573620
outcell: Cell angles (23,13,12) (deg):     90.4112     90.4112     90.4112
outcell: Cell volume (Ang**3)        :    173.1324
New_DM. Step:     8
Re-using DM from previous geometry...
Re-using DM without extrapolation (not allowed)
Density Matrix sparsity pattern changed.

InitMesh: MESH =    36 x    36 x    36 =       46656
InitMesh: Mesh cutoff (required, used) =   100.000   115.313 Ry

siesta: iscf   Eharris(eV)      E_KS(eV)   FreeEng(eV)   dDmax  Ef(eV)
siesta:    1    -1030.2057    -1028.7234    -1028.7234  0.0498 -4.7524
siesta:    2    -1030.3186    -1030.0773    -1030.0775  0.0711 -4.8114
siesta:    3    -1030.1588    -1029.9207    -1029.9212  0.0083 -4.7827
siesta:    4    -1030.1583    -1030.1272    -1030.1275  0.0029 -4.7844
siesta:    5    -1030.1582    -1030.1431    -1030.1434  0.0015 -4.7842
siesta:    6    -1030.1582    -1030.1494    -1030.1497  0.0004 -4.7838

siesta: E_KS(eV) =            -1030.1520

siesta: Atomic forces (eV/Ang):
----------------------------------------
   Tot    0.004273    0.004281    0.004277
----------------------------------------
   Max    1.277117
   Res    0.883731    sqrt( Sum f_i^2 / 3N )
----------------------------------------
   Max    1.277117    constrained

Stress-tensor-Voigt (kbar):       18.92       18.92       18.92       13.89       13.89       13.89
(Free)E + p*V (eV/cell)    -1032.1969
Target enthalpy (eV/cell)    -1030.1523

siesta: Stress tensor (static) (eV/Ang**3):
         0.011809    0.008671    0.008671
         0.008671    0.011809    0.008671
         0.008671    0.008671    0.011809

siesta: Pressure (static):        -18.92038415  kBar

siesta: Stress tensor (total) (eV/Ang**3):
         0.011809    0.008671    0.008671
         0.008671    0.011809    0.008671
         0.008671    0.008671    0.011809

siesta: Pressure (total):        -18.92038415  kBar

mulliken: Mulliken Atomic and Orbital Populations:

Species: Si                  
Atom  Qatom  Qorb
               3s      3s      3py     3pz     3px     3py     3pz     3px     
               3Pdxy   3Pdyz   3Pdz2   3Pdxz   3Pdx2-y2
   1  4.001   0.695   0.547   0.284   0.284   0.284   0.482   0.482   0.482
              0.110   0.110   0.064   0.110   0.064
   2  4.021   0.589   0.598   0.249   0.249   0.249   0.524   0.524   0.524
              0.122   0.122   0.075   0.122   0.075
   3  3.997   0.647   0.569   0.265   0.249   0.265   0.502   0.513   0.502
              0.115   0.116   0.071   0.116   0.067
   4  3.996   0.683   0.552   0.268   0.295   0.268   0.494   0.475   0.494
              0.115   0.111   0.063   0.111   0.067
   5  3.997   0.647   0.569   0.249   0.265   0.265   0.513   0.502   0.502
              0.116   0.116   0.068   0.115   0.070
   6  3.996   0.683   0.552   0.295   0.268   0.268   0.475   0.494   0.494
              0.111   0.111   0.066   0.115   0.064
   7  3.997   0.647   0.569   0.265   0.265   0.249   0.502   0.502   0.513
              0.116   0.115   0.068   0.116   0.070
   8  3.996   0.683   0.552   0.268   0.268   0.295   0.494   0.494   0.475
              0.111   0.115   0.066   0.111   0.064

mulliken: Qtot =       32.000

* Maximum dynamic memory allocated =    91 MB

siesta:                 ==============================
                            Begin CG move =      8
                        ==============================

outcoor: Atomic coordinates (Ang):                          
    0.10385436    0.10385433    0.10385389   1       1  Si
    1.49867744    1.49867739    1.49867804   1       2  Si
    2.82802161    2.82802169    0.10747687   1       3  Si
    4.19396145    4.19396149    1.49800901   1       4  Si
    2.82802193    0.10747656    2.82802194   1       5  Si
    4.19396120    1.49800935    4.19396101   1       6  Si
    0.10747657    2.82802204    2.82802209   1       7  Si
    1.49800915    4.19396122    4.19396104   1       8  Si
 Kpoints in:  405 . Kpoints trimmed:  365

siesta: k-grid: Number of k-points =   365
siesta: k-grid: Cutoff (effective) =    24.649 Ang
siesta: k-grid: Supercell and displacements
siesta: k-grid:    0   9   0      0.000
siesta: k-grid:    9   0   0      0.000
siesta: k-grid:    0   0   9      0.000
Naive supercell factors:     5    5    5

superc: Internal auxiliary supercell:     5 x     5 x     5  =     125
superc: Number of atoms, orbitals, and projectors:   1000  13000  16000

outcell: Unit cell vectors (Ang):
        5.477318   -0.042945   -0.042945
       -0.042945    5.477318   -0.042945
       -0.042945   -0.042945    5.477318

outcell: Cell vector modules (Ang)   :    5.477655    5.477655    5.477655
outcell: Cell angles (23,13,12) (deg):     90.8949     90.8949     90.8949
outcell: Cell volume (Ang**3)        :    164.2946
New_DM. Step:     9
Re-using DM from previous geometry...
Re-using DM without extrapolation (not allowed)
Density Matrix sparsity pattern changed.

InitMesh: MESH =    36 x    36 x    36 =       46656
InitMesh: Mesh cutoff (required, used) =   100.000   119.435 Ry

siesta: iscf   Eharris(eV)      E_KS(eV)   FreeEng(eV)   dDmax  Ef(eV)
siesta:    1    -1030.5656    -1031.7181    -1031.7184  0.0428 -4.9894
siesta:    2    -1030.6467    -1030.4734    -1030.4734  0.0557 -5.0012
siesta:    3    -1030.5329    -1030.6299    -1030.6300  0.0079 -4.9904
siesta:    4    -1030.5322    -1030.5128    -1030.5128  0.0026 -4.9877
siesta:    5    -1030.5322    -1030.5153    -1030.5153  0.0016 -4.9871
siesta:    6    -1030.5321    -1030.5283    -1030.5283  0.0004 -4.9867

siesta: E_KS(eV) =            -1030.5310

siesta: Atomic forces (eV/Ang):
----------------------------------------
   Tot   -0.006822   -0.006820   -0.006831
----------------------------------------
   Max    0.650109
   Res    0.384782    sqrt( Sum f_i^2 / 3N )
----------------------------------------
   Max    0.650109    constrained

Stress-tensor-Voigt (kbar):      -20.21      -20.21      -20.21       -3.45       -3.45       -3.45
(Free)E + p*V (eV/cell)    -1028.4586
Target enthalpy (eV/cell)    -1030.5310

siesta: Stress tensor (static) (eV/Ang**3):
        -0.012614   -0.002151   -0.002151
        -0.002151   -0.012614   -0.002151
        -0.002151   -0.002151   -0.012614

siesta: Pressure (static):         20.20959171  kBar

siesta: Stress tensor (total) (eV/Ang**3):
        -0.012614   -0.002151   -0.002151
        -0.002151   -0.012614   -0.002151
        -0.002151   -0.002151   -0.012614

siesta: Pressure (total):         20.20959171  kBar

mulliken: Mulliken Atomic and Orbital Populations:

Species: Si                  
Atom  Qatom  Qorb
               3s      3s      3py     3pz     3px     3py     3pz     3px     
               3Pdxy   3Pdyz   3Pdz2   3Pdxz   3Pdx2-y2
   1  3.995   0.677   0.554   0.248   0.248   0.248   0.513   0.513   0.513
              0.116   0.116   0.068   0.116   0.068
   2  4.006   0.604   0.589   0.220   0.220   0.220   0.544   0.544   0.544
              0.124   0.124   0.075   0.124   0.075
   3  4.002   0.604   0.589   0.229   0.204   0.229   0.536   0.552   0.536
              0.122   0.125   0.077   0.125   0.072
   4  3.998   0.628   0.578   0.227   0.234   0.227   0.534   0.528   0.534
              0.122   0.121   0.071   0.121   0.073
   5  4.002   0.604   0.589   0.204   0.229   0.229   0.552   0.536   0.536
              0.125   0.125   0.073   0.122   0.076
   6  3.998   0.628   0.578   0.234   0.227   0.227   0.528   0.534   0.534
              0.121   0.121   0.073   0.122   0.072
   7  4.002   0.604   0.589   0.229   0.229   0.204   0.536   0.536   0.552
              0.125   0.122   0.073   0.125   0.076
   8  3.998   0.628   0.578   0.227   0.227   0.234   0.534   0.534   0.528
              0.121   0.122   0.073   0.121   0.072

mulliken: Qtot =       32.000

cgvc: Finished line minimization    2.  Mean atomic displacement =    0.1755

* Maximum dynamic memory allocated =    91 MB

siesta:                 ==============================
                            Begin CG move =      9
                        ==============================

outcoor: Atomic coordinates (Ang):                          
    0.12082826    0.12082836    0.12082784   1       1  Si
    1.47233916    1.47233971    1.47233895   1       2  Si
    2.92381426    2.92381428    0.14350235   1       3  Si
    4.31417061    4.31417048    1.46354181   1       4  Si
    2.92381403    0.14350293    2.92381391   1       5  Si
    4.31416922    1.46354165    4.31416959   1       6  Si
    0.14350302    2.92381438    2.92381382   1       7  Si
    1.46354162    4.31416943    4.31416981   1       8  Si
 Kpoints in:  405 . Kpoints trimmed:  365

siesta: k-grid: Number of k-points =   365
siesta: k-grid: Cutoff (effective) =    25.073 Ang
siesta: k-grid: Supercell and displacements
siesta: k-grid:    9   0   0      0.000
siesta: k-grid:    0   9   0      0.000
siesta: k-grid:    0   0   9      0.000
Naive supercell factors:     5    5    5

superc: Internal auxiliary supercell:     5 x     5 x     5  =     125
superc: Number of atoms, orbitals, and projectors:   1000  13000  16000

outcell: Unit cell vectors (Ang):
        5.571784   -0.023722   -0.023723
       -0.023722    5.571784   -0.023723
       -0.023723   -0.023723    5.571785

outcell: Cell vector modules (Ang)   :    5.571885    5.571885    5.571886
outcell: Cell angles (23,13,12) (deg):     90.4868     90.4868     90.4868
outcell: Cell volume (Ang**3)        :    172.9654
New_DM. Step:    10
Re-using DM from previous geometry...
Re-using DM without extrapolation (not allowed)
Density Matrix sparsity pattern changed.

InitMesh: MESH =    36 x    36 x    36 =       46656
InitMesh: Mesh cutoff (required, used) =   100.000   115.389 Ry

siesta: iscf   Eharris(eV)      E_KS(eV)   FreeEng(eV)   dDmax  Ef(eV)
siesta:    1    -1030.7150    -1029.0631    -1029.0631  0.0488 -4.9450
siesta:    2    -1031.4579    -1030.0364    -1030.0364  0.1717 -4.9811
siesta:    3    -1030.4908    -1029.8398    -1029.8398  0.0331 -4.9552
siesta:    4    -1030.4909    -1030.3565    -1030.3565  0.0059 -4.9579
siesta:    5    -1030.4906    -1030.4173    -1030.4173  0.0023 -4.9580
siesta:    6    -1030.4906    -1030.4561    -1030.4561  0.0009 -4.9581

siesta: E_KS(eV) =            -1030.4755

siesta: Atomic forces (eV/Ang):
----------------------------------------
   Tot   -0.000633   -0.000558   -0.000634
----------------------------------------
   Max    0.886774
   Res    0.475164    sqrt( Sum f_i^2 / 3N )
----------------------------------------
   Max    0.886774    constrained

Stress-tensor-Voigt (kbar):       20.67       20.67       20.67      -13.38      -13.38      -13.38
(Free)E + p*V (eV/cell)    -1032.7066
Target enthalpy (eV/cell)    -1030.4755

siesta: Stress tensor (static) (eV/Ang**3):
         0.012900   -0.008350   -0.008350
        -0.008350    0.012899   -0.008351
        -0.008350   -0.008351    0.012900

siesta: Pressure (static):        -20.66719238  kBar

siesta: Stress tensor (total) (eV/Ang**3):
         0.012900   -0.008350   -0.008350
        -0.008350    0.012899   -0.008351
        -0.008350   -0.008351    0.012900

siesta: Pressure (total):        -20.66719238  kBar

mulliken: Mulliken Atomic and Orbital Populations:

Species: Si                  
Atom  Qatom  Qorb
               3s      3s      3py     3pz     3px     3py     3pz     3px     
               3Pdxy   3Pdyz   3Pdz2   3Pdxz   3Pdx2-y2
   1  4.008   0.590   0.597   0.238   0.238   0.238   0.530   0.530   0.530
              0.123   0.123   0.074   0.123   0.074
   2  3.997   0.670   0.557   0.265   0.265   0.265   0.500   0.500   0.500
              0.114   0.114   0.066   0.114   0.066
   3  3.999   0.684   0.551   0.268   0.300   0.268   0.495   0.473   0.495
              0.115   0.111   0.062   0.111   0.068
   4  3.999   0.659   0.563   0.264   0.261   0.264   0.503   0.505   0.503
              0.115   0.115   0.067   0.115   0.067
   5  3.999   0.684   0.551   0.300   0.268   0.268   0.473   0.495   0.495
              0.111   0.111   0.066   0.115   0.063
   6  3.999   0.659   0.563   0.261   0.264   0.264   0.505   0.503   0.503
              0.115   0.115   0.067   0.115   0.067
   7  3.999   0.684   0.551   0.268   0.268   0.300   0.495   0.495   0.473
              0.111   0.115   0.066   0.111   0.063
   8  3.999   0.659   0.563   0.264   0.264   0.261   0.503   0.503   0.505
              0.115   0.115   0.067   0.115   0.067

mulliken: Qtot =       32.000

* Maximum dynamic memory allocated =    91 MB

siesta:                 ==============================
                            Begin CG move =     10
                        ==============================

outcoor: Atomic coordinates (Ang):                          
    0.11155022    0.11155025    0.11154978   1       1  Si
    1.48698025    1.48698047    1.48698047   1       2  Si
    2.87174378    2.87174383    0.12387354   1       3  Si
    4.24901725    4.24901721    1.48254462   1       4  Si
    2.87174385    0.12387363    2.87174380   1       5  Si
    4.24901648    1.48254474    4.24901654   1       6  Si
    0.12387368    2.87174407    2.87174383   1       7  Si
    1.48254462    4.24901659    4.24901666   1       8  Si
 Kpoints in:  405 . Kpoints trimmed:  365

siesta: k-grid: Number of k-points =   365
siesta: k-grid: Cutoff (effective) =    24.844 Ang
siesta: k-grid: Supercell and displacements
siesta: k-grid:    9   0   0      0.000
siesta: k-grid:    0   9   0      0.000
siesta: k-grid:    0   0   9      0.000
Naive supercell factors:     5    5    5

superc: Internal auxiliary supercell:     5 x     5 x     5  =     125
superc: Number of atoms, orbitals, and projectors:   1000  13000  16000

outcell: Unit cell vectors (Ang):
        5.520628   -0.034132   -0.034132
       -0.034132    5.520628   -0.034132
       -0.034132   -0.034132    5.520628

outcell: Cell vector modules (Ang)   :    5.520839    5.520839    5.520839
outcell: Cell angles (23,13,12) (deg):     90.7063     90.7063     90.7063
outcell: Cell volume (Ang**3)        :    168.2346
New_DM. Step:    11
Re-using DM from previous geometry...
Re-using DM without extrapolation (not allowed)
Density Matrix sparsity pattern changed.

InitMesh: MESH =    36 x    36 x    36 =       46656
InitMesh: Mesh cutoff (required, used) =   100.000   117.552 Ry

siesta: iscf   Eharris(eV)      E_KS(eV)   FreeEng(eV)   dDmax  Ef(eV)
siesta:    1    -1030.7098    -1031.2459    -1031.2459  0.0347 -5.0211
siesta:    2    -1030.8981    -1030.5289    -1030.5289  0.0762 -5.0041
siesta:    3    -1030.6502    -1030.8080    -1030.8080  0.0160 -5.0072
siesta:    4    -1030.6500    -1030.6241    -1030.6241  0.0016 -5.0016
siesta:    5    -1030.6500    -1030.6288    -1030.6288  0.0011 -5.0022
siesta:    6    -1030.6500    -1030.6433    -1030.6433  0.0003 -5.0031

siesta: E_KS(eV) =            -1030.6472

siesta: Atomic forces (eV/Ang):
----------------------------------------
   Tot   -0.004057   -0.004055   -0.004065
----------------------------------------
   Max    0.175464
   Res    0.078235    sqrt( Sum f_i^2 / 3N )
----------------------------------------
   Max    0.175464    constrained

Stress-tensor-Voigt (kbar):        0.77        0.77        0.77       -8.87       -8.87       -8.87
(Free)E + p*V (eV/cell)    -1030.7278
Target enthalpy (eV/cell)    -1030.6472

siesta: Stress tensor (static) (eV/Ang**3):
         0.000479   -0.005536   -0.005536
        -0.005536    0.000479   -0.005536
        -0.005536   -0.005536    0.000479

siesta: Pressure (static):         -0.76763292  kBar

siesta: Stress tensor (total) (eV/Ang**3):
         0.000479   -0.005536   -0.005536
        -0.005536    0.000479   -0.005536
        -0.005536   -0.005536    0.000479

siesta: Pressure (total):         -0.76763292  kBar

mulliken: Mulliken Atomic and Orbital Populations:

Species: Si                  
Atom  Qatom  Qorb
               3s      3s      3py     3pz     3px     3py     3pz     3px     
               3Pdxy   3Pdyz   3Pdz2   3Pdxz   3Pdx2-y2
   1  4.001   0.640   0.571   0.242   0.242   0.242   0.522   0.522   0.522
              0.119   0.119   0.070   0.119   0.070
   2  3.999   0.633   0.575   0.242   0.242   0.242   0.521   0.521   0.521
              0.119   0.119   0.071   0.119   0.071
   3  4.000   0.645   0.569   0.243   0.247   0.243   0.521   0.518   0.521
              0.119   0.118   0.069   0.118   0.070
   4  4.000   0.645   0.569   0.246   0.250   0.246   0.518   0.515   0.518
              0.118   0.118   0.069   0.118   0.070
   5  4.000   0.645   0.569   0.247   0.243   0.243   0.518   0.521   0.521
              0.118   0.118   0.070   0.119   0.070
   6  4.000   0.645   0.569   0.250   0.246   0.246   0.515   0.518   0.518
              0.118   0.118   0.070   0.118   0.069
   7  4.000   0.645   0.569   0.243   0.243   0.247   0.521   0.521   0.518
              0.118   0.119   0.070   0.118   0.070
   8  4.000   0.645   0.569   0.246   0.246   0.250   0.518   0.518   0.515
              0.118   0.118   0.070   0.118   0.069

mulliken: Qtot =       32.000

cgvc: Finished line minimization    3.  Mean atomic displacement =    0.0804

* Maximum dynamic memory allocated =    91 MB

siesta:                 ==============================
                            Begin CG move =     11
                        ==============================

outcoor: Atomic coordinates (Ang):                          
    0.13410626    0.13410667    0.13410881   1       1  Si
    1.50185206    1.50185152    1.50185076   1       2  Si
    2.91659709    2.91659762    0.12529645   1       3  Si
    4.29382089    4.29382069    1.56294673   1       4  Si
    2.91659651    0.12529686    2.91659625   1       5  Si
    4.29382167    1.56294755    4.29382024   1       6  Si
    0.12529485    2.91659658    2.91659642   1       7  Si
    1.56294748    4.29382075    4.29381973   1       8  Si
 Kpoints in:  405 . Kpoints trimmed:  365

siesta: k-grid: Number of k-points =   365
siesta: k-grid: Cutoff (effective) =    24.863 Ang
siesta: k-grid: Supercell and displacements
siesta: k-grid:    9   0   0      0.000
siesta: k-grid:    0   9   0      0.000
siesta: k-grid:    0   0   9      0.000
Naive supercell factors:     5    5    5

superc: Internal auxiliary supercell:     5 x     5 x     5  =     125
superc: Number of atoms, orbitals, and projectors:   1000  13000  16000

outcell: Unit cell vectors (Ang):
        5.525153    0.010440    0.010441
        0.010440    5.525153    0.010441
        0.010441    0.010441    5.525153

outcell: Cell vector modules (Ang)   :    5.525173    5.525173    5.525173
outcell: Cell angles (23,13,12) (deg):     89.7833     89.7833     89.7833
outcell: Cell volume (Ang**3)        :    168.6663
New_DM. Step:    12
Re-using DM from previous geometry...
Re-using DM without extrapolation (not allowed)
Density Matrix sparsity pattern changed.

InitMesh: MESH =    36 x    36 x    36 =       46656
InitMesh: Mesh cutoff (required, used) =   100.000   117.335 Ry

siesta: iscf   Eharris(eV)      E_KS(eV)   FreeEng(eV)   dDmax  Ef(eV)
siesta:    1    -1030.6375    -1030.5481    -1030.5481  0.0301 -5.0223
siesta:    2    -1030.6940    -1030.5774    -1030.5774  0.0386 -5.0295
siesta:    3    -1030.6169    -1030.5851    -1030.5851  0.0071 -5.0248
siesta:    4    -1030.6167    -1030.6040    -1030.6040  0.0004 -5.0249

siesta: E_KS(eV) =            -1030.6079

siesta: Atomic forces (eV/Ang):
----------------------------------------
   Tot    0.001029    0.001020    0.001045
----------------------------------------
   Max    0.614784
   Res    0.299663    sqrt( Sum f_i^2 / 3N )
----------------------------------------
   Max    0.614784    constrained

Stress-tensor-Voigt (kbar):        1.60        1.60        1.60        5.00        5.00        5.00
(Free)E + p*V (eV/cell)    -1030.7763
Target enthalpy (eV/cell)    -1030.6079

siesta: Stress tensor (static) (eV/Ang**3):
         0.000998    0.003122    0.003122
         0.003122    0.000998    0.003122
         0.003122    0.003122    0.000998

siesta: Pressure (static):         -1.59971899  kBar

siesta: Stress tensor (total) (eV/Ang**3):
         0.000998    0.003122    0.003122
         0.003122    0.000998    0.003122
         0.003122    0.003122    0.000998

siesta: Pressure (total):         -1.59971899  kBar

mulliken: Mulliken Atomic and Orbital Populations:

Species: Si                  
Atom  Qatom  Qorb
               3s      3s      3py     3pz     3px     3py     3pz     3px     
               3Pdxy   3Pdyz   3Pdz2   3Pdxz   3Pdx2-y2
   1  3.999   0.646   0.568   0.244   0.244   0.244   0.520   0.520   0.520
              0.118   0.118   0.069   0.118   0.069
   2  3.998   0.674   0.555   0.257   0.257   0.257   0.506   0.506   0.506
              0.115   0.115   0.067   0.115   0.067
   3  4.000   0.641   0.571   0.246   0.247   0.247   0.518   0.518   0.518
              0.118   0.118   0.070   0.118   0.070
   4  4.001   0.631   0.576   0.248   0.234   0.248   0.518   0.527   0.518
              0.118   0.120   0.072   0.120   0.069
   5  4.000   0.641   0.571   0.247   0.247   0.246   0.518   0.518   0.518
              0.118   0.118   0.070   0.118   0.070
   6  4.001   0.631   0.576   0.234   0.248   0.248   0.527   0.518   0.518
              0.120   0.120   0.070   0.118   0.071
   7  4.000   0.641   0.571   0.246   0.247   0.247   0.518   0.518   0.518
              0.118   0.118   0.070   0.118   0.070
   8  4.001   0.631   0.576   0.248   0.248   0.234   0.518   0.518   0.527
              0.120   0.118   0.070   0.120   0.071

mulliken: Qtot =       32.000

* Maximum dynamic memory allocated =    91 MB

siesta:                 ==============================
                            Begin CG move =     12
                        ==============================

outcoor: Atomic coordinates (Ang):                          
    0.11856864    0.11856879    0.11856914   1       1  Si
    1.49169610    1.49169609    1.49169585   1       2  Si
    2.88589429    2.88589449    0.12426676   1       3  Si
    4.26310100    4.26310091    1.50784812   1       4  Si
    2.88589415    0.12426696    2.88589404   1       5  Si
    4.26310072    1.50784846    4.26310030   1       6  Si
    0.12426636    2.88589433    2.88589412   1       7  Si
    1.50784835    4.26310050    4.26310023   1       8  Si
 Kpoints in:  405 . Kpoints trimmed:  365

siesta: k-grid: Number of k-points =   365
siesta: k-grid: Cutoff (effective) =    24.850 Ang
siesta: k-grid: Supercell and displacements
siesta: k-grid:    9   0   0      0.000
siesta: k-grid:    0   9   0      0.000
siesta: k-grid:    0   0   9      0.000
Naive supercell factors:     5    5    5

superc: Internal auxiliary supercell:     5 x     5 x     5  =     125
superc: Number of atoms, orbitals, and projectors:   1000  13000  16000

outcell: Unit cell vectors (Ang):
        5.522051   -0.020115   -0.020115
       -0.020115    5.522051   -0.020115
       -0.020115   -0.020115    5.522051

outcell: Cell vector modules (Ang)   :    5.522124    5.522124    5.522124
outcell: Cell angles (23,13,12) (deg):     90.4166     90.4166     90.4166
outcell: Cell volume (Ang**3)        :    168.3774
New_DM. Step:    13
Re-using DM from previous geometry...
Re-using DM without extrapolation (not allowed)
Density Matrix sparsity pattern changed.

InitMesh: MESH =    36 x    36 x    36 =       46656
InitMesh: Mesh cutoff (required, used) =   100.000   117.474 Ry

siesta: iscf   Eharris(eV)      E_KS(eV)   FreeEng(eV)   dDmax  Ef(eV)
siesta:    1    -1030.6746    -1030.6736    -1030.6736  0.0308 -5.0079
siesta:    2    -1030.7007    -1030.6461    -1030.6461  0.0284 -5.0065
siesta:    3    -1030.6648    -1030.6573    -1030.6573  0.0051 -5.0069
siesta:    4    -1030.6646    -1030.6579    -1030.6579  0.0003 -5.0066

siesta: E_KS(eV) =            -1030.6600

siesta: Atomic forces (eV/Ang):
----------------------------------------
   Tot   -0.008163   -0.008154   -0.008159
----------------------------------------
   Max    0.106996
   Res    0.061397    sqrt( Sum f_i^2 / 3N )
----------------------------------------
   Max    0.106996    constrained

Stress-tensor-Voigt (kbar):        1.61        1.61        1.61       -4.37       -4.37       -4.37
(Free)E + p*V (eV/cell)    -1030.8292
Target enthalpy (eV/cell)    -1030.6600

siesta: Stress tensor (static) (eV/Ang**3):
         0.001005   -0.002730   -0.002730
        -0.002730    0.001005   -0.002730
        -0.002730   -0.002730    0.001005

siesta: Pressure (static):         -1.61032182  kBar

siesta: Stress tensor (total) (eV/Ang**3):
         0.001005   -0.002730   -0.002730
        -0.002730    0.001005   -0.002730
        -0.002730   -0.002730    0.001005

siesta: Pressure (total):         -1.61032182  kBar

mulliken: Mulliken Atomic and Orbital Populations:

Species: Si                  
Atom  Qatom  Qorb
               3s      3s      3py     3pz     3px     3py     3pz     3px     
               3Pdxy   3Pdyz   3Pdz2   3Pdxz   3Pdx2-y2
   1  4.001   0.643   0.570   0.244   0.244   0.244   0.521   0.521   0.521
              0.119   0.119   0.070   0.119   0.070
   2  3.997   0.646   0.569   0.246   0.246   0.246   0.517   0.517   0.517
              0.118   0.118   0.069   0.118   0.069
   3  3.999   0.643   0.570   0.244   0.246   0.244   0.519   0.519   0.519
              0.118   0.118   0.069   0.118   0.070
   4  4.001   0.641   0.571   0.246   0.244   0.246   0.519   0.520   0.519
              0.118   0.118   0.070   0.118   0.070
   5  3.999   0.643   0.570   0.246   0.244   0.244   0.519   0.519   0.519
              0.118   0.118   0.070   0.118   0.070
   6  4.001   0.641   0.571   0.244   0.246   0.246   0.520   0.519   0.519
              0.118   0.118   0.070   0.118   0.070
   7  3.999   0.643   0.570   0.244   0.244   0.246   0.519   0.519   0.519
              0.118   0.118   0.070   0.118   0.070
   8  4.001   0.641   0.571   0.246   0.246   0.244   0.519   0.519   0.520
              0.118   0.118   0.070   0.118   0.070

mulliken: Qtot =       32.000

cgvc: Finished line minimization    4.  Mean atomic displacement =    0.0253

* Maximum dynamic memory allocated =    91 MB

siesta:                 ==============================
                            Begin CG move =     13
                        ==============================

outcoor: Atomic coordinates (Ang):                          
    0.12614671    0.12614695    0.12614659   1       1  Si
    1.50629520    1.50629539    1.50629486   1       2  Si
    2.89728986    2.89728971    0.14077332   1       3  Si
    4.27342324    4.27342373    1.52446141   1       4  Si
    2.89729085    0.14077454    2.89729046   1       5  Si
    4.27342291    1.52446168    4.27342325   1       6  Si
    0.14077430    2.89729070    2.89729057   1       7  Si
    1.52446145    4.27342313    4.27342267   1       8  Si
 Kpoints in:  405 . Kpoints trimmed:  365

siesta: k-grid: Number of k-points =   365
siesta: k-grid: Cutoff (effective) =    24.840 Ang
siesta: k-grid: Supercell and displacements
siesta: k-grid:    9   0   0      0.000
siesta: k-grid:    0   9   0      0.000
siesta: k-grid:    0   0   9      0.000
Naive supercell factors:     5    5    5

superc: Internal auxiliary supercell:     5 x     5 x     5  =     125
superc: Number of atoms, orbitals, and projectors:   1000  13000  16000

outcell: Unit cell vectors (Ang):
        5.520024   -0.003513   -0.003513
       -0.003513    5.520024   -0.003513
       -0.003513   -0.003513    5.520025

outcell: Cell vector modules (Ang)   :    5.520027    5.520027    5.520027
outcell: Cell angles (23,13,12) (deg):     90.0729     90.0729     90.0729
outcell: Cell volume (Ang**3)        :    168.1986
New_DM. Step:    14
Re-using DM from previous geometry...
Re-using DM without extrapolation (not allowed)
Density Matrix sparsity pattern changed.

InitMesh: MESH =    36 x    36 x    36 =       46656
InitMesh: Mesh cutoff (required, used) =   100.000   117.551 Ry

siesta: iscf   Eharris(eV)      E_KS(eV)   FreeEng(eV)   dDmax  Ef(eV)
siesta:    1    -1030.6737    -1030.6871    -1030.6871  0.0033 -5.0292
siesta:    2    -1030.6745    -1030.6726    -1030.6726  0.0053 -5.0292
siesta:    3    -1030.6733    -1030.6738    -1030.6738  0.0006 -5.0291

siesta: E_KS(eV) =            -1030.6730

siesta: Atomic forces (eV/Ang):
----------------------------------------
   Tot   -0.002130   -0.002124   -0.002133
----------------------------------------
   Max    0.055388
   Res    0.032312    sqrt( Sum f_i^2 / 3N )
----------------------------------------
   Max    0.055388    constrained

Stress-tensor-Voigt (kbar):        0.50        0.50        0.50       -0.94       -0.94       -0.94
(Free)E + p*V (eV/cell)    -1030.7254
Target enthalpy (eV/cell)    -1030.6730

siesta: Stress tensor (static) (eV/Ang**3):
         0.000312   -0.000589   -0.000589
        -0.000589    0.000312   -0.000589
        -0.000589   -0.000589    0.000312

siesta: Pressure (static):         -0.49912581  kBar

siesta: Stress tensor (total) (eV/Ang**3):
         0.000312   -0.000589   -0.000589
        -0.000589    0.000312   -0.000589
        -0.000589   -0.000589    0.000312

siesta: Pressure (total):         -0.49912581  kBar

mulliken: Mulliken Atomic and Orbital Populations:

Species: Si                  
Atom  Qatom  Qorb
               3s      3s      3py     3pz     3px     3py     3pz     3px     
               3Pdxy   3Pdyz   3Pdz2   3Pdxz   3Pdx2-y2
   1  4.000   0.646   0.568   0.244   0.244   0.244   0.520   0.520   0.520
              0.118   0.118   0.070   0.118   0.070
   2  3.998   0.645   0.569   0.246   0.246   0.246   0.518   0.518   0.518
              0.118   0.118   0.069   0.118   0.069
   3  4.000   0.640   0.571   0.244   0.243   0.244   0.520   0.521   0.520
              0.118   0.119   0.070   0.119   0.070
   4  4.000   0.639   0.572   0.245   0.243   0.245   0.520   0.521   0.520
              0.118   0.119   0.070   0.119   0.070
   5  4.000   0.640   0.571   0.243   0.244   0.244   0.521   0.520   0.520
              0.119   0.119   0.070   0.118   0.070
   6  4.000   0.639   0.572   0.243   0.245   0.245   0.521   0.520   0.520
              0.119   0.119   0.070   0.118   0.070
   7  4.000   0.640   0.571   0.244   0.244   0.243   0.520   0.520   0.521
              0.119   0.118   0.070   0.119   0.070
   8  4.000   0.639   0.572   0.245   0.245   0.243   0.520   0.520   0.521
              0.119   0.118   0.070   0.119   0.070

mulliken: Qtot =       32.000

* Maximum dynamic memory allocated =    91 MB

siesta:                 ==============================
                            Begin CG move =     14
                        ==============================

outcoor: Atomic coordinates (Ang):                          
    0.13843403    0.13843441    0.13843292   1       1  Si
    1.52979762    1.52979813    1.52979715   1       2  Si
    2.91554845    2.91554776    0.16726804   1       3  Si
    4.28976959    4.28977101    1.55091509   1       4  Si
    2.91555129    0.16727092    2.91555045   1       5  Si
    4.28976918    1.55091526    4.28977072   1       6  Si
    0.16727126    2.91555062    2.91555060   1       7  Si
    1.55091483    4.28977011    4.28976933   1       8  Si
 Kpoints in:  405 . Kpoints trimmed:  365

siesta: k-grid: Number of k-points =   365
siesta: k-grid: Cutoff (effective) =    24.826 Ang
siesta: k-grid: Supercell and displacements
siesta: k-grid:    9   0   0      0.000
siesta: k-grid:    0   9   0      0.000
siesta: k-grid:    0   0   9      0.000
Naive supercell factors:     5    5    5

superc: Internal auxiliary supercell:     5 x     5 x     5  =     125
superc: Number of atoms, orbitals, and projectors:   1000  13000  16000

outcell: Unit cell vectors (Ang):
        5.516782    0.023051    0.023051
        0.023051    5.516782    0.023050
        0.023051    0.023050    5.516782

outcell: Cell vector modules (Ang)   :    5.516878    5.516878    5.516878
outcell: Cell angles (23,13,12) (deg):     89.5202     89.5202     89.5202
outcell: Cell volume (Ang**3)        :    167.8938
New_DM. Step:    15
Re-using DM from previous geometry...
Re-using DM without extrapolation (not allowed)
Density Matrix sparsity pattern changed.

InitMesh: MESH =    36 x    36 x    36 =       46656
InitMesh: Mesh cutoff (required, used) =   100.000   117.701 Ry

siesta: iscf   Eharris(eV)      E_KS(eV)   FreeEng(eV)   dDmax  Ef(eV)
siesta:    1    -1030.6643    -1030.7111    -1030.7111  0.0057 -5.0167
siesta:    2    -1030.6670    -1030.6611    -1030.6611  0.0095 -5.0146
[...]
          8.72   8.81   9.58   9.60   9.83  10.37  14.42  14.81  14.94  15.02
         15.22  15.24  15.88  15.90  16.34  16.72  16.73  16.75  17.21  17.22
         18.42  18.43  18.50  19.15  19.16  19.54  19.62  20.63  20.94  21.71
         26.71  26.85  26.87  27.91  29.93  29.97  31.89  31.90  37.55  37.57
         42.12  45.33  55.56  55.86  57.19  63.19  67.76  69.26  69.28  75.98
         80.29  80.33  89.52  98.93
 350  1 -15.65 -15.25 -14.60 -14.45 -12.04 -11.86 -11.11 -10.61  -8.68  -8.50
         -7.75  -7.28  -7.22  -7.21  -6.96  -6.48  -3.12  -3.06  -3.02  -2.57
         -2.10  -2.02  -1.81  -1.39  -1.31  -0.70  -0.07   0.01   0.44   1.04
          1.21   2.01   2.51   2.88   3.29   4.06   4.33   4.61   4.82   5.01
          5.08   5.95   6.90   7.49   7.53   8.30   8.64   8.99   9.14   9.18
          9.21   9.51  10.22  10.97  11.03  11.47  13.40  13.57  13.73  13.94
         14.26  14.64  15.11  15.36  15.74  16.15  16.32  16.36  17.42  17.65
         17.99  18.05  18.32  19.12  19.28  19.86  20.52  21.50  21.69  22.37
         25.54  25.69  26.18  27.45  27.77  30.00  33.70  34.98  35.83  36.28
         41.52  46.45  54.17  55.71  55.77  59.95  64.63  67.86  68.63  75.49
         82.63  88.09  88.39 101.34
 351  1 -15.77 -15.35 -14.61 -14.34 -11.86 -11.54 -10.63 -10.06  -9.27  -9.01
         -8.29  -7.85  -7.43  -7.34  -6.97  -6.39  -3.17  -2.61  -2.59  -2.31
         -2.00  -1.82  -1.80  -0.92  -0.64  -0.55   0.11   0.13   0.19   0.73
          1.02   1.54   1.91   1.98   3.06   3.20   3.32   3.78   5.06   5.22
          5.52   6.31   8.06   8.23   8.32   8.93   8.94   9.52   9.54   9.74
          9.94  10.59  11.23  11.61  11.68  12.00  12.45  12.70  13.00  13.03
         13.55  14.09  14.16  14.42  15.48  15.52  15.66  15.70  17.30  17.47
         17.85  18.57  18.71  19.25  19.92  20.69  21.13  22.14  22.24  22.98
         24.33  24.77  25.47  26.01  27.16  29.19  36.84  38.15  39.64  41.18
         44.02  52.41  53.61  56.13  56.24  58.25  62.79  66.69  68.19  73.56
         82.94  84.09  88.79 103.41
 352  1 -15.81 -15.38 -14.61 -14.31 -11.74 -11.38 -10.39  -9.76  -9.52  -9.24
         -8.57  -8.19  -7.49  -7.38  -6.97  -6.36  -3.21  -2.33  -2.31  -2.29
         -2.01  -1.86  -1.34  -0.96  -0.60  -0.48  -0.25  -0.10   0.50   0.75
          1.44   1.55   1.58   1.89   2.56   2.71   3.17   3.18   5.21   5.31
          5.78   6.43   7.96   8.55   8.81   9.50   9.55   9.73  10.10  10.50
         10.52  10.55  11.11  11.14  11.31  11.97  12.52  12.65  12.66  13.35
         13.42  13.64  13.80  14.01  14.98  15.18  15.36  15.41  17.14  17.39
         17.81  18.87  19.10  19.26  20.45  21.12  21.34  22.29  22.56  23.24
         23.78  24.41  24.50  25.95  26.99  28.84  39.21  40.75  43.15  44.29
         47.84  49.46  53.93  54.66  56.30  62.29  65.04  67.99  69.58  74.43
         75.97  82.30  84.94  87.66
 353  1 -15.77 -15.35 -14.61 -14.33 -11.86 -11.54 -10.63 -10.06  -9.27  -9.00
         -8.29  -7.84  -7.44  -7.34  -6.97  -6.38  -3.17  -2.60  -2.58  -2.31
         -2.00  -1.81  -1.81  -0.91  -0.65  -0.57   0.10   0.11   0.19   0.72
          1.02   1.55   1.91   1.97   3.08   3.20   3.33   3.79   5.07   5.22
          5.53   6.30   8.05   8.23   8.34   8.93   8.95   9.52   9.55   9.73
          9.94  10.58  11.23  11.61  11.66  11.98  12.41  12.71  13.00  13.02
         13.51  14.09  14.16  14.43  15.50  15.52  15.67  15.73  17.31  17.47
         17.85  18.57  18.72  19.26  19.93  20.71  21.13  22.14  22.25  22.96
         24.32  24.78  25.47  26.03  27.18  29.18  37.00  38.16  39.76  41.21
         44.10  52.39  53.43  56.17  56.23  58.16  62.84  66.78  68.24  73.54
         82.99  84.36  88.89 103.39
 354  1 -15.65 -15.25 -14.60 -14.44 -12.04 -11.86 -11.11 -10.62  -8.68  -8.49
         -7.75  -7.28  -7.22  -7.20  -6.96  -6.48  -3.11  -3.06  -3.01  -2.55
         -2.10  -2.02  -1.82  -1.40  -1.31  -0.70  -0.09   0.00   0.42   1.03
          1.19   2.00   2.53   2.87   3.29   4.08   4.34   4.63   4.84   5.02
          5.09   5.95   6.93   7.50   7.54   8.29   8.63   9.01   9.11   9.18
          9.22   9.53  10.20  10.94  10.98  11.45  13.38  13.55  13.70  13.94
         14.26  14.64  15.11  15.38  15.74  16.16  16.35  16.39  17.45  17.65
         18.00  18.04  18.31  19.13  19.31  19.87  20.52  21.51  21.70  22.33
         25.52  25.70  26.21  27.49  27.78  30.00  33.83  34.99  35.92  36.28
         41.55  46.44  54.28  55.59  55.85  60.00  64.72  67.81  68.77  75.46
         82.67  88.24  88.63 101.26
 355  1 -15.45 -15.09 -14.64 -14.64 -12.09 -12.09 -11.58 -11.16  -7.97  -7.97
         -7.33  -7.03  -7.03  -6.91  -6.65  -6.65  -3.56  -3.24  -3.01  -3.01
         -2.01  -1.97  -1.97  -1.95  -1.60  -1.22  -0.86  -0.86   1.46   2.06
          2.23   2.23   3.49   3.49   3.85   4.00   4.53   4.98   5.27   5.28
          5.31   5.63   6.27   6.27   6.75   8.09   8.09   8.17   8.70   8.71
          8.73   8.78   9.56   9.56   9.80  10.33  14.42  14.80  14.93  15.02
         15.23  15.23  15.89  15.90  16.35  16.74  16.75  16.77  17.23  17.23
         18.43  18.44  18.50  19.15  19.15  19.56  19.62  20.64  20.95  21.67
         26.75  26.86  26.86  27.97  29.96  29.96  31.92  31.94  37.56  37.57
         42.12  45.32  55.80  55.81  57.29  63.45  67.56  69.39  69.41  76.03
         80.29  80.31  89.60  98.77
 356  1 -15.20 -14.91 -14.91 -14.74 -12.12 -11.94 -11.93 -11.61  -7.58  -7.34
         -7.34  -6.91  -6.78  -6.75  -6.75  -6.49  -3.63  -3.30  -3.30  -3.26
         -2.06  -2.06  -1.89  -1.85  -1.84  -1.47  -1.46  -1.46   2.59   2.59
          3.02   3.11   3.40   3.88   4.09   4.09   4.26   4.62   4.81   4.81
          5.52   6.56   6.56   6.78   6.78   6.95   7.47   7.68   8.09   8.40
          8.40   8.65   8.69   9.00   9.15   9.15  15.12  15.28  15.28  16.01
         16.11  16.12  16.13  16.42  16.47  16.56  16.89  16.89  17.59  18.51
         18.51  18.77  18.96  18.96  19.36  19.46  19.93  19.93  20.45  20.60
         28.08  28.09  28.26  28.67  29.28  30.12  30.12  30.73  44.85  47.01
         47.03  51.31  58.23  58.25  61.56  63.44  64.14  74.42  74.43  81.69
         87.49  87.50  92.58  92.63
 357  1 -15.01 -14.85 -14.84 -14.84 -12.16 -12.16 -12.16 -11.98  -6.88  -6.88
         -6.87  -6.67  -6.67  -6.66  -6.57  -6.57  -3.97  -3.71  -3.71  -3.70
         -1.99  -1.99  -1.99  -1.93  -1.91  -1.79  -1.79  -1.78   3.33   3.33
          3.33   3.46   4.56   4.56   4.56   4.65   4.67   5.50   5.51   5.51
          5.59   6.10   6.10   6.11   6.19   6.20   6.20   7.08   7.11   7.33
          7.35   7.35   8.47   8.50   8.51   8.66  16.12  16.27  16.30  16.30
         16.89  16.92  17.04  17.05  17.05  17.30  17.30  17.31  18.66  18.71
         18.71  19.20  19.20  19.21  19.40  19.40  19.41  19.70  19.71  20.57
         28.51  28.51  28.56  29.09  29.16  29.24  29.24  29.25  58.06  58.08
         58.24  59.60  67.15  67.24  67.24  69.52  69.55  69.96  79.03  79.48
        105.09 105.17 105.17 105.73
 358  1 -15.19 -14.91 -14.91 -14.75 -12.11 -11.93 -11.93 -11.61  -7.58  -7.34
         -7.34  -6.92  -6.78  -6.75  -6.75  -6.50  -3.65  -3.31  -3.31  -3.25
         -2.05  -2.05  -1.87  -1.85  -1.84  -1.47  -1.47  -1.46   2.62   2.62
          3.02   3.11   3.41   3.87   4.08   4.09   4.25   4.61   4.79   4.79
          5.50   6.54   6.54   6.77   6.77   6.94   7.47   7.67   8.12   8.39
          8.39   8.65   8.68   9.03   9.18   9.18  15.15  15.29  15.29  15.99
         16.12  16.13  16.14  16.40  16.49  16.54  16.86  16.87  17.56  18.51
         18.51  18.79  18.96  18.96  19.35  19.45  19.93  19.93  20.44  20.63
         28.07  28.07  28.25  28.63  29.30  30.09  30.10  30.73  44.92  47.02
         47.03  51.28  58.04  58.05  61.46  63.29  64.25  74.51  74.52  81.54
         87.35  87.36  92.39  92.72
 359  1 -15.35 -14.99 -14.99 -14.72 -11.86 -11.54 -11.54 -11.12  -8.36  -8.04
         -8.04  -7.61  -6.88  -6.80  -6.80  -6.46  -3.12  -3.10  -2.87  -2.86
         -1.97  -1.97  -1.67  -1.61  -1.28  -1.00  -0.90  -0.90   1.62   1.62
          2.08   2.31   2.75   3.07   3.15   3.44   3.44   4.21   4.21   4.75
          5.91   7.27   7.27   7.61   7.62   7.96   8.02   8.60   9.17   9.17
          9.29   9.41   9.52  10.27  10.46  10.46  13.67  13.93  13.93  14.47
         15.10  15.10  15.41  15.47  15.71  15.97  16.10  16.10  17.95  18.52
         18.62  18.62  19.22  19.22  19.43  19.95  20.64  20.64  20.84  21.11
         27.53  27.53  27.96  28.25  28.37  32.09  32.09  34.63  41.66  42.92
         42.92  48.30  54.66  54.68  57.05  58.69  61.68  75.52  75.52  77.57
         81.87  81.94  82.31  99.65
 360  1 -15.45 -15.06 -15.06 -14.72 -11.51 -11.10 -11.10 -10.60  -9.02  -8.69
         -8.69  -8.30  -6.94  -6.85  -6.85  -6.44  -3.16  -2.78  -2.71  -2.71
         -1.54  -1.54  -1.28  -1.17  -0.46  -0.39  -0.22  -0.22   0.69   0.69
          1.06   1.48   1.76   2.12   2.48   2.48   3.06   4.21   4.21   4.99
          6.31   7.62   7.62   8.30   8.59   8.60   8.85   9.15   9.99   9.99
         10.06  10.34  10.93  11.69  11.70  11.72  12.82  12.82  12.84  12.98
         14.10  14.13  14.13  14.58  14.87  15.16  15.16  15.39  17.83  18.54
         18.54  19.26  19.53  19.95  19.95  20.60  21.26  21.26  21.43  21.56
         26.52  26.68  26.69  27.64  27.74  34.86  34.86  43.11  43.11  44.65
         44.67  49.47  53.32  53.33  56.64  59.01  61.06  70.70  70.73  77.67
         78.01  79.35  79.37  87.31
 361  1 -15.49 -15.09 -15.08 -14.73 -11.31 -10.86 -10.86 -10.32  -9.32  -9.00
         -9.00  -8.64  -6.97  -6.86  -6.86  -6.44  -3.18  -2.70  -2.69  -2.69
         -1.17  -1.17  -1.10  -0.67  -0.14   0.03   0.03   0.33   0.33   0.37
          0.43   0.96   1.13   1.68   1.96   1.97   3.04   4.23   4.23   5.11
          6.45   7.74   7.74   8.43   8.94   9.03   9.04   9.71  10.30  10.80
         10.81  11.36  11.44  11.45  11.68  12.25  12.48  12.71  12.89  13.15
         13.15  13.39  13.39  13.99  14.31  14.56  14.56  15.12  17.74  18.52
         18.52  19.57  19.73  20.29  20.29  20.89  21.53  21.53  21.71  21.75
         25.75  26.28  26.28  27.41  27.48  36.19  36.19  44.13  50.35  50.37
         50.44  50.47  50.67  54.11  56.10  60.72  61.10  65.13  65.17  69.88
         76.83  77.03  77.04  77.98
 362  1 -15.46 -15.06 -15.06 -14.72 -11.51 -11.10 -11.10 -10.60  -9.03  -8.69
         -8.69  -8.29  -6.95  -6.85  -6.85  -6.44  -3.16  -2.77  -2.70  -2.70
         -1.54  -1.54  -1.28  -1.16  -0.46  -0.41  -0.24  -0.24   0.68   0.68
          1.05   1.48   1.78   2.13   2.49   2.49   3.05   4.21   4.21   5.00
          6.32   7.62   7.62   8.30   8.59   8.60   8.85   9.14  10.01  10.01
         10.04  10.35  10.95  11.68  11.68  11.69  12.79  12.79  12.82  13.00
         14.08  14.13  14.13  14.57  14.89  15.19  15.19  15.40  17.82  18.54
         18.54  19.28  19.55  19.95  19.95  20.61  21.27  21.27  21.41  21.56
         26.52  26.69  26.69  27.63  27.75  34.89  34.89  43.10  43.13  44.72
         44.74  49.49  53.29  53.30  56.71  58.96  61.06  70.93  70.94  77.69
         77.96  79.39  79.40  87.33
 363  1 -15.36 -14.99 -14.99 -14.71 -11.86 -11.54 -11.54 -11.12  -8.36  -8.03
         -8.03  -7.60  -6.88  -6.81  -6.80  -6.46  -3.12  -3.09  -2.86  -2.86
         -1.97  -1.97  -1.66  -1.61  -1.30  -1.00  -0.90  -0.90   1.59   1.60
          2.06   2.31   2.77   3.09   3.14   3.46   3.46   4.21   4.21   4.77
          5.93   7.27   7.27   7.63   7.63   7.96   8.02   8.58   9.19   9.20
          9.31   9.42   9.49  10.25  10.42  10.42  13.65  13.92  13.92  14.49
         15.09  15.09  15.39  15.46  15.73  15.99  16.13  16.13  17.96  18.51
         18.62  18.62  19.22  19.22  19.46  19.96  20.65  20.65  20.82  21.12
         27.53  27.53  27.95  28.26  28.38  32.14  32.14  34.64  41.63  42.94
         42.95  48.26  54.75  54.75  57.07  58.82  61.63  75.65  75.65  77.63
         82.05  82.07  82.11  99.79
 364  1 -15.20 -14.91 -14.91 -14.74 -12.12 -11.94 -11.93 -11.61  -7.58  -7.34
         -7.34  -6.91  -6.78  -6.75  -6.75  -6.49  -3.63  -3.30  -3.30  -3.26
         -2.06  -2.06  -1.89  -1.85  -1.84  -1.47  -1.46  -1.46   2.59   2.59
          3.02   3.11   3.40   3.88   4.09   4.09   4.26   4.62   4.81   4.81
          5.52   6.56   6.56   6.78   6.78   6.95   7.47   7.68   8.09   8.40
          8.40   8.65   8.69   9.00   9.15   9.15  15.12  15.28  15.28  16.01
         16.11  16.12  16.13  16.42  16.47  16.56  16.89  16.89  17.59  18.51
         18.51  18.77  18.96  18.96  19.36  19.46  19.93  19.93  20.45  20.60
         28.08  28.09  28.26  28.67  29.28  30.12  30.12  30.73  44.85  47.01
         47.03  51.31  58.23  58.25  61.56  63.44  64.14  74.42  74.43  81.69
         87.49  87.50  92.58  92.63
 365  1 -15.02 -14.84 -14.84 -14.84 -12.16 -12.16 -12.16 -11.97  -6.88  -6.88
         -6.88  -6.67  -6.67  -6.67  -6.56  -6.56  -3.96  -3.71  -3.71  -3.71
         -2.00  -2.00  -2.00  -1.91  -1.91  -1.78  -1.78  -1.78   3.31   3.31
          3.32   3.47   4.55   4.55   4.55   4.66   4.66   5.53   5.53   5.53
          5.58   6.12   6.12   6.12   6.20   6.21   6.21   7.09   7.09   7.32
          7.32   7.32   8.50   8.50   8.50   8.63  16.09  16.30  16.30  16.30
         16.91  16.91  17.03  17.03  17.03  17.32  17.32  17.32  18.72  18.72
         18.73  19.21  19.21  19.21  19.38  19.39  19.39  19.72  19.72  20.50
         28.56  28.56  28.56  29.16  29.16  29.19  29.19  29.19  58.08  58.11
         58.11  59.57  67.02  67.02  67.02  69.75  69.75  69.82  79.72  79.72
        105.25 105.25 105.25 106.16
siesta: Fermi energy =      -5.030357 eV

siesta: Program's energy decomposition (eV):
siesta: Ebs     =      -331.676985
siesta: Eions   =      1510.441798
siesta: Ena     =       471.312673
siesta: Ekin    =       319.298222
siesta: Enl     =       127.094063
siesta: DEna    =         6.604073
siesta: DUscf   =         1.519195
siesta: DUext   =         0.000000
siesta: Exc     =      -446.059911
siesta: eta*DQ  =         0.000000
siesta: Emadel  =         0.000000
siesta: Emeta   =         0.000000
siesta: Emolmec =         0.000000
siesta: Ekinion =         0.000000
siesta: Eharris =     -1030.674617
siesta: Etot    =     -1030.673484
siesta: FreeEng =     -1030.673484

siesta: Final energy (eV):
siesta:  Band Struct. =    -331.676985
siesta:       Kinetic =     319.298222
siesta:       Hartree =      59.895061
siesta:    Ext. field =       0.000000
siesta:   Exch.-corr. =    -446.059911
siesta:  Ion-electron =    -421.905627
siesta:       Ion-ion =    -541.901228
siesta:       Ekinion =       0.000000
siesta:         Total =   -1030.673484

siesta: Stress tensor (static) (eV/Ang**3):
siesta:     0.000052    0.000620    0.000620
siesta:     0.000620    0.000052    0.000620
siesta:     0.000620    0.000620    0.000052

siesta: Constrained stress tensor (static) (eV/Ang**3):
siesta:     0.000052    0.000620    0.000620
siesta:     0.000620    0.000052    0.000620
siesta:     0.000620    0.000620    0.000052

siesta: Cell volume =        168.094909 Ang**3

siesta: Pressure (static):
siesta:                Solid            Molecule  Units
siesta:          -0.00000056          0.00000152  Ry/Bohr**3
siesta:          -0.00005152          0.00013946  eV/Ang**3
siesta:          -0.08254152          0.22343779  kBar
(Free)E+ p_basis*V_orbitals  =       -1021.735754
(Free)Eharris+ p_basis*V_orbitals  =       -1021.737382

* Maximum dynamic memory allocated : Node    0 =    91 MB

* Maximum memory occured during init_pulay_arrrays            

timer: CPU execution times:
timer:  Routine       Calls   Time/call    Tot.time        %
timer:  siesta            1    3681.934    3681.934   100.00
timer:  Setup             1       0.195       0.195     0.01
timer:  bands             3       0.564       1.692     0.05
timer:  writewave         3       0.009       0.028     0.00
timer:  KSV_init          1       0.000       0.000     0.00
timer:  IterMD           18     204.434    3679.808    99.94
timer:  hsparse          18       0.248       4.467     0.12
timer:  overlap          18       0.138       2.492     0.07
timer:  IterSCF          91      36.367    3309.433    89.88
timer:  kinefsm          36       0.139       5.002     0.14
timer:  nlefsm           36       4.247     152.910     4.15
timer:  DHSCF           109      10.046    1095.062    29.74
timer:  DHSCF1           18       0.058       1.038     0.03
timer:  DHSCF2           18       3.543      63.771     1.73
timer:  REORD           690       0.000       0.116     0.00
timer:  POISON          127       0.005       0.675     0.02
timer:  DHSCF3          109       8.242     898.341    24.40
timer:  rhoofd          109       3.745     408.225    11.09
timer:  cellXC          109       0.194      21.112     0.57
timer:  vmat            109       4.294     468.075    12.71
timer:  MolMec           36       0.000       0.000     0.00
timer:  diagon           91      26.491    2410.676    65.47
timer:  c-eigval      35611       0.019     676.810    18.38
timer:  c-buildHS     35611       0.011     393.196    10.68
timer:  cdiag         71122       0.010     732.011    19.88
timer:  cdiag1        71122       0.001      61.843     1.68
timer:  cdiag2        71122       0.003     192.593     5.23
timer:  cdiag3        71122       0.007     463.286    12.58
timer:  cdiag4        71122       0.000      10.024     0.27
timer:  c-eigvec      35511       0.024     843.160    22.90
timer:  c-buildD      35510       0.025     889.609    24.16
timer:  DHSCF4           18       7.326     131.860     3.58
timer:  dfscf            18       6.278     113.008     3.07
timer:  overfsm          18       0.133       2.401     0.07
timer:  optical           1       0.000       0.000     0.00
  

elaps: ELAPSED times:
elaps:  Routine       Calls   Time/call    Tot.time        %
elaps:  siesta            1    3701.979    3701.979   100.00
elaps:  Setup             1       0.196       0.196     0.01
elaps:  bands             3       0.564       1.693     0.05
elaps:  writewave         3       0.009       0.028     0.00
elaps:  KSV_init          1       0.000       0.000     0.00
elaps:  IterMD           18     205.538    3699.683    99.94
elaps:  hsparse          18       0.249       4.482     0.12
elaps:  overlap          18       0.140       2.522     0.07
elaps:  IterSCF          91      36.555    3326.504    89.86
elaps:  kinefsm          36       0.140       5.023     0.14
elaps:  nlefsm           36       4.261     153.403     4.14
elaps:  DHSCF           109      10.088    1099.631    29.70
elaps:  DHSCF1           18       0.058       1.040     0.03
elaps:  DHSCF2           18       3.556      64.001     1.73
elaps:  REORD           690       0.000       0.117     0.00
elaps:  POISON          127       0.005       0.676     0.02
elaps:  DHSCF3          109       8.273     901.769    24.36
elaps:  rhoofd          109       3.763     410.133    11.08
elaps:  cellXC          109       0.194      21.175     0.57
elaps:  vmat            109       4.308     469.530    12.68
elaps:  MolMec           36       0.000       0.000     0.00
elaps:  diagon           91      26.594    2420.039    65.37
elaps:  c-eigval      35611       0.019     679.246    18.35
elaps:  c-buildHS     35611       0.011     394.884    10.67
elaps:  cdiag         71122       0.010     734.559    19.84
elaps:  cdiag1        71122       0.001      62.186     1.68
elaps:  cdiag2        71122       0.003     193.461     5.23
elaps:  cdiag3        71122       0.007     465.270    12.57
elaps:  cdiag4        71122       0.000      10.078     0.27
elaps:  c-eigvec      35511       0.024     846.414    22.86
elaps:  c-buildD      35510       0.025     893.457    24.13
elaps:  DHSCF4           18       7.376     132.771     3.59
elaps:  dfscf            18       6.322     113.791     3.07
elaps:  overfsm          18       0.134       2.406     0.06
elaps:  optical           1       0.001       0.001     0.00
  
>> End of run:  13-MAY-2013  14:48:27
