Siesta Version:                                        siesta-3.2
Architecture  : x86_64-unknown-linux-gnu--unknown
Compiler flags: f95 -g -O2
SERIAL version

* Running in serial mode
>> Start of run:   9-MAY-2013  20:47:05

                           ***********************       
                           *  WELCOME TO SIESTA  *       
                           ***********************       

reinit: Reading from standard input
************************** Dump of input data file ****************************
# FDF for silicon
SystemName             silicon          # Descriptive name of the system
SystemLabel            si          # Short name for naming files
NumberOfAtoms 8
NumberOfSpecies 1
%block ChemicalSpeciesLabel
1 14 Si
%endblock ChemicalSpeciesLabel
LatticeConstant  5.80 Ang
##Basis set Definition##
PAO.BasisType          split        # Type of PAO basis set
PAO.EnergyShift        50 meV
PAO.BasisSize          DZP          # (DZP) Double-z + polarization
#%block LatticeVectors
#0.500 0.500 0.000
#0.500 0.000 0.500
#0.000 0.500 0.500
#%endblock LatticeVectors
AtomicCoordinatesFormat NotScaledCartesianAng
%block AtomicCoordinatesAndAtomicSpecies
	0.00000000	0.00000000	0.00000000  1 Si  1
	1.36000000	1.36000000	1.36000000  1 Si  2
	2.72000000	2.72000000	0.00000000  1 Si  3
	4.08000000	4.08000000	1.36000000  1 Si  4
	2.72000000	0.00000000	2.72000000  1 Si  5
	4.08000000	1.36000000	4.08000000  1 Si  6
	0.00000000	2.72000000	2.72000000  1 Si  7
	1.36000000	4.08000000	4.08000000  1 Si  8
%endblock AtomicCoordinatesAndAtomicSpecies
MeshCutoff 100.0 Ry # 100, 120, 180, 260
kgrid_cutoff 30.0 Bohr # 30, 35, 40, 45
DM.Mixingweight  0.3
DM.NumberPulay    3
DM.Tolerance      1.d-3
DM.UseSaveDM      true
ElectronicTemperature 25 meV
SolutionMethod    diagon
XC.functional      GGA	    # Generalized Gradient Approximation
XC.authors        PBE          # Perdew-Burke-Ernzerhof
SpinPolarized     false
MD.TypeOfRun           CG           # Type of dynamics:
MD.VariableCell        true
MD.NumCGsteps          100          # Number of CG steps for coordinate optimization
MD.MaxCGDispl          0.2 Bohr     # Maximum atomic displacement
                                    #   in one CG step (Bohr)
MD.MaxForceTol         0.04 eV/Ang  # Tolerance in the maximum
                                    #   atomic force (Ry/Bohr)
				
##Output Specification##
WriteMDhistory         true         # Trajectory information
WriteCoorStep          true
WriteCoorXmol          true
WriteMDXmol            true
WriteEigenvalues true
WriteKbands      true
WriteBands       true
WriteWaveFunctions true
WriteMullikenPoP   1
%block BandLines
1	1.000	1.000 1.000 L
25	0.000	0.000	0.000 \Gamma
30	2.000	0.000	0.000 X
10	2.000	0.500	0.500 U
35	0.000	0.000	0.000 \Gamma
%endblock BandLines
%block WaveFuncKPoints
0.0 0.0 0.0 from 1 to 50 # > 16 = 4/2*8 (Valenzelektronen/2, Atomzahl ...)
%endblock WaveFuncKpoints
************************** End of input data file *****************************

reinit: -----------------------------------------------------------------------
reinit: System Name: silicon
reinit: -----------------------------------------------------------------------
reinit: System Label: si                                                          
reinit: -----------------------------------------------------------------------

initatom: Reading input for the pseudopotentials and atomic orbitals ----------
Siesta Version:                                        siesta-3.2
Architecture  : x86_64-unknown-linux-gnu--unknown
Compiler flags: f95 -g -O2
SERIAL version

* Running in serial mode
>> Start of run:   9-MAY-2013  20:47:05

                           ***********************       
                           *  WELCOME TO SIESTA  *       
                           ***********************       

reinit: Reading from standard input
************************** Dump of input data file ****************************
************************** End of input data file *****************************

reinit: -----------------------------------------------------------------------
reinit: System Name: 
reinit: -----------------------------------------------------------------------
reinit: System Label: siesta                                                      
reinit: -----------------------------------------------------------------------

initatom: Reading input for the pseudopotentials and atomic orbitals ----------
No species found!!!
ERROR STOP from Node:    0
 Species number:            1  Label: Si Atomic number:          14
Ground state valence configuration:   3s02  3p02
Reading pseudopotential information in formatted form from Si.psf

Valence configuration for pseudopotential generation:
3s( 2.00) rc: 1.75
3p( 2.00) rc: 1.94
3d( 0.00) rc: 2.09
4f( 0.00) rc: 2.09
For Si, standard SIESTA heuristics set lmxkb to 3
 (one more than the basis l, including polarization orbitals).
Use PS.lmax or PS.KBprojectors blocks to override.

<basis_specs>
===============================================================================
Si                   Z=  14    Mass=  28.090        Charge= 0.17977+309
Lmxo=1 Lmxkb= 3    BasisType=split      Semic=F
L=0  Nsemic=0  Cnfigmx=3
          n=1  nzeta=2  polorb=0
            splnorm:   0.15000    
               vcte:    0.0000    
               rinn:    0.0000    
                rcs:    0.0000      0.0000    
            lambdas:    1.0000      1.0000    
L=1  Nsemic=0  Cnfigmx=3
          n=1  nzeta=2  polorb=1
            splnorm:   0.15000    
               vcte:    0.0000    
               rinn:    0.0000    
                rcs:    0.0000      0.0000    
            lambdas:    1.0000      1.0000    
-------------------------------------------------------------------------------
L=0  Nkbl=1  erefs: 0.17977+309
L=1  Nkbl=1  erefs: 0.17977+309
L=2  Nkbl=1  erefs: 0.17977+309
L=3  Nkbl=1  erefs: 0.17977+309
===============================================================================
</basis_specs>

atom: Called for Si                    (Z =  14)

read_vps: Pseudopotential generation method:
read_vps: ATM3      Troullier-Martins                       
Total valence charge:    4.00000

read_vps: Pseudopotential includes a core correction:
read_vps: Pseudo-core for xc-correction

xc_check: Exchange-correlation functional:
xc_check: GGA Perdew, Burke & Ernzerhof 1996
V l=0 = -2*Zval/r beyond r=  2.0104
V l=1 = -2*Zval/r beyond r=  2.0873
V l=2 = -2*Zval/r beyond r=  2.1670
V l=3 = -2*Zval/r beyond r=  2.1670
All V_l potentials equal beyond r=  2.0613
This should be close to max(r_c) in ps generation
All pots = -2*Zval/r beyond r=  2.1670

VLOCAL1: 99.0% of the norm of Vloc inside     10.216 Ry
VLOCAL1: 99.9% of the norm of Vloc inside     23.282 Ry
atom: Maximum radius for 4*pi*r*r*local-pseudopot. charge    2.45560
atom: Maximum radius for r*vlocal+2*Zval:    2.14012
GHOST: No ghost state for L =  0
GHOST: No ghost state for L =  1
GHOST: No ghost state for L =  2
GHOST: No ghost state for L =  3

KBgen: Kleinman-Bylander projectors: 
   l= 0   rc=  2.306811   el= -0.791441   Ekb=  5.289775   kbcos=  0.291595
   l= 1   rc=  2.394965   el= -0.300632   Ekb=  1.944256   kbcos=  0.287657
   l= 2   rc=  2.549439   el=  0.001958   Ekb= -1.788485   kbcos= -0.056492
   l= 3   rc=  2.782581   el=  0.003046   Ekb= -0.472620   kbcos= -0.006203

KBgen: Total number of  Kleinman-Bylander projectors:   16
atom: -------------------------------------------------------------------------

atom: SANKEY-TYPE ORBITALS:
atom: Selected multiple-zeta basis: split     

SPLIT: Orbitals with angular momentum L= 0

SPLIT: Basis orbitals for state 3s

SPLIT: PAO cut-off radius determined from an
SPLIT: energy shift=  0.003675 Ry

   izeta = 1
                 lambda =    1.000000
                     rc =    6.116033
                 energy =   -0.788343
                kinetic =    0.528041
    potential(screened) =   -1.316383
       potential(ionic) =   -3.704743

   izeta = 2
                 rmatch =    4.530823
              splitnorm =    0.150000
                 energy =   -0.692892
                kinetic =    0.848665
    potential(screened) =   -1.541557
       potential(ionic) =   -4.044985

SPLIT: Orbitals with angular momentum L= 1

SPLIT: Basis orbitals for state 3p

SPLIT: PAO cut-off radius determined from an
SPLIT: energy shift=  0.003675 Ry

   izeta = 1
                 lambda =    1.000000
                     rc =    7.853192
                 energy =   -0.297152
                kinetic =    0.797948
    potential(screened) =   -1.095101
       potential(ionic) =   -3.275753

   izeta = 2
                 rmatch =    5.330310
              splitnorm =    0.150000
                 energy =   -0.228170
                kinetic =    1.148579
    potential(screened) =   -1.376749
       potential(ionic) =   -3.739005

POLgen: Perturbative polarization orbital with L=  2

POLgen: Polarization orbital for state 3p

   izeta = 1
                     rc =    7.853192
                 energy =    0.340222
                kinetic =    1.096718
    potential(screened) =   -0.756496
       potential(ionic) =   -2.716423
atom: Total number of Sankey-type orbitals: 13

atm_pop: Valence configuration (for local Pseudopot. screening):
 3s( 2.00)                                                            
 3p( 2.00)                                                            
Vna: chval, zval:    4.00000   4.00000

Vna:  Cut-off radius for the neutral-atom potential:   7.853192
comcore: Pseudo-core radius Rcore=  2.999314

atom: _________________________________________________________________________

prinput: Basis input ----------------------------------------------------------

PAO.BasisType split     

%block ChemicalSpeciesLabel
    1   14 Si                      # Species index, atomic number, species label
%endblock ChemicalSpeciesLabel

%block PAO.Basis                 # Define Basis set
Si                    2                    # Species label, number of l-shells
 n=3   0   2                         # n, l, Nzeta 
   6.116      4.531   
   1.000      1.000   
 n=3   1   2 P   1                   # n, l, Nzeta, Polarization, NzetaPol
   7.853      5.330   
   1.000      1.000   
%endblock PAO.Basis

prinput: ----------------------------------------------------------------------

coor:   Atomic-coordinates input format  =     Cartesian coordinates
coor:                                          (in Angstroms)

siesta: Atomic coordinates (Bohr) and species
siesta:      0.00000   0.00000   0.00000  1        1
siesta:      2.57003   2.57003   2.57003  1        2
siesta:      5.14006   5.14006   0.00000  1        3
siesta:      7.71009   7.71009   2.57003  1        4
siesta:      5.14006   0.00000   5.14006  1        5
siesta:      7.71009   2.57003   7.71009  1        6
siesta:      0.00000   5.14006   5.14006  1        7
siesta:      2.57003   7.71009   7.71009  1        8

siesta: System type = bulk      

initatomlists: Number of atoms, orbitals, and projectors:      8   104   128

siesta: ******************** Simulation parameters ****************************
siesta:
siesta: The following are some of the parameters of the simulation.
siesta: A complete list of the parameters used, including default values,
siesta: can be found in file out.fdf
siesta:
redata: Non-Collinear-spin run           =     F
redata: SpinPolarized (Up/Down) run      =     F
redata: Number of spin components        =     1
redata: Long output                      =     F
redata: Number of Atomic Species         =        1
redata: Charge density info will appear in .RHO file
redata: Write Mulliken Pop.              =     Atomic and Orbital charges
redata: Mesh Cutoff                      =   100.0000  Ry
redata: Net charge of the system         =     0.0000 |e|
redata: Max. number of SCF Iter          =       50
redata: Performing Pulay mixing using    =     3 iterations
redata: Mix DM in first SCF step ?       =     F
redata: Write Pulay info on disk?        =     F
redata: Discard 1st Pulay DM after  kick =     F
redata: New DM Mixing Weight             =     0.3000
redata: New DM Occupancy tolerance       = 0.000000000001
redata: No kicks to SCF
redata: DM Mixing Weight for Kicks       =     0.5000
redata: DM Tolerance for SCF             =     0.001000
redata: Require Energy convergence for SCF =     F
redata: DM Energy tolerance for SCF      =     0.000100 eV
redata: Require Harris convergence for SCF =     F
redata: DM Harris energy tolerance for SCF =     0.000100 eV
redata: Using Saved Data (generic)   =     F
redata: Use continuation files for DM    =     T
redata: Neglect nonoverlap interactions  =     F
redata: Method of Calculation            =     Diagonalization
redata: Divide and Conquer               =     T
redata: Electronic Temperature           =     0.0018  Ry
redata: Fix the spin of the system       =     F
redata: Dynamics option                  =     CG coord. optimization
redata: Variable cell                    =     T
redata: Use continuation files for CG    =     F
redata: Max atomic displ per move        =     0.2000  Bohr
redata: Maximum number of CG moves       =      100
redata: Force tolerance                  =     0.0016  Ry/Bohr
redata: Stress tolerance                 =     1.0000  GPa
redata: ***********************************************************************
Total number of electrons:    32.000000
Total ionic charge:    32.000000
 Kpoints in:          108 . Kpoints trimmed:          108

siesta: k-grid: Number of k-points =   108
siesta: k-grid: Cutoff (effective) =    17.400 Ang
siesta: k-grid: Supercell and displacements
siesta: k-grid:    0   6   0      0.500
siesta: k-grid:    0   0   6      0.500
siesta: k-grid:    6   0   0      0.500
Naive supercell factors:     4    4    4

superc: Internal auxiliary supercell:     4 x     4 x     4  =      64
superc: Number of atoms, orbitals, and projectors:    512   6656   8192

* Maximum dynamic memory allocated =     1 MB

siesta:                 ==============================
                            Begin CG move =      0
                        ==============================

outcoor: Atomic coordinates (Ang):                          
    0.00000000    0.00000000    0.00000000   1       1  Si
    1.36000000    1.36000000    1.36000000   1       2  Si
    2.72000000    2.72000000    0.00000000   1       3  Si
    4.08000000    4.08000000    1.36000000   1       4  Si
    2.72000000    0.00000000    2.72000000   1       5  Si
    4.08000000    1.36000000    4.08000000   1       6  Si
    0.00000000    2.72000000    2.72000000   1       7  Si
    1.36000000    4.08000000    4.08000000   1       8  Si

superc: Internal auxiliary supercell:     4 x     4 x     4  =      64
superc: Number of atoms, orbitals, and projectors:    512   6656   8192

outcell: Unit cell vectors (Ang):
        5.800000    0.000000    0.000000
        0.000000    5.800000    0.000000
        0.000000    0.000000    5.800000

outcell: Cell vector modules (Ang)   :    5.800000    5.800000    5.800000
outcell: Cell angles (23,13,12) (deg):     90.0000     90.0000     90.0000
outcell: Cell volume (Ang**3)        :    195.1120
New_DM. Step:     1
Initializing Density Matrix...

InitMesh: MESH =    36 x    36 x    36 =       46656
InitMesh: Mesh cutoff (required, used) =   100.000   106.476 Ry

* Maximum dynamic memory allocated =    60 MB

stepf: Fermi-Dirac step function

siesta: Program's energy decomposition (eV):
siesta: Ebs     =      -322.793560
siesta: Eions   =      1510.441798
siesta: Ena     =       478.569671
siesta: Ekin    =       288.667622
siesta: Enl     =       147.816244
siesta: DEna    =         0.000001
siesta: DUscf   =         0.000000
siesta: DUext   =         0.000000
siesta: Exc     =      -436.527028
siesta: eta*DQ  =         0.000000
siesta: Emadel  =         0.000000
siesta: Emeta   =         0.000000
siesta: Emolmec =         0.000000
siesta: Ekinion =         0.000000
siesta: Eharris =     -1028.322749
siesta: Etot    =     -1031.915289
siesta: FreeEng =     -1031.915289

siesta: iscf   Eharris(eV)      E_KS(eV)   FreeEng(eV)   dDmax  Ef(eV)
siesta:    1    -1028.3227    -1031.9153    -1031.9153  1.8372 -5.0867
timer: Routine,Calls,Time,% = IterSCF        1      13.881  96.28
elaps: Routine,Calls,Wall,% = IterSCF        1      13.946  96.22
siesta:    2    -1028.2352    -1028.1517    -1028.1537  0.0657 -4.9327
siesta:    3    -1028.1971    -1028.2529    -1028.2549  0.0267 -4.9386
siesta:    4    -1028.1944    -1028.2122    -1028.2144  0.0106 -4.9369
siesta:    5    -1028.1941    -1028.1964    -1028.1987  0.0041 -4.9396
siesta:    6    -1028.1940    -1028.1956    -1028.1979  0.0024 -4.9416
siesta:    7    -1028.1940    -1028.1951    -1028.1974  0.0011 -4.9425
siesta:    8    -1028.1940    -1028.1947    -1028.1970  0.0005 -4.9421

siesta: E_KS(eV) =            -1028.1944

siesta: E_KS - E_eggbox =     -1028.1944

siesta: Atomic forces (eV/Ang):
----------------------------------------
   Tot   -0.000519   -0.000517   -0.000527
----------------------------------------
   Max    2.157444
   Res    1.316181    sqrt( Sum f_i^2 / 3N )
----------------------------------------
   Max    2.157444    constrained

Stress-tensor-Voigt (kbar):       71.23       71.23       71.23      -13.27      -13.27      -13.27
(Free)E + p*V (eV/cell)    -1036.8712
Target enthalpy (eV/cell)    -1028.1967

siesta: Stress tensor (static) (eV/Ang**3):
         0.044459   -0.008282   -0.008282
        -0.008282    0.044459   -0.008282
        -0.008282   -0.008282    0.044459

siesta: Pressure (static):        -71.23211316  kBar

siesta: Stress tensor (total) (eV/Ang**3):
         0.044459   -0.008282   -0.008282
        -0.008282    0.044459   -0.008282
        -0.008282   -0.008282    0.044459

siesta: Pressure (total):        -71.23211316  kBar

mulliken: Mulliken Atomic and Orbital Populations:

Species: Si                  
Atom  Qatom  Qorb
               3s      3s      3py     3pz     3px     3py     3pz     3px     
               3Pdxy   3Pdyz   3Pdz2   3Pdxz   3Pdx2-y2
   1  4.082   0.984   0.417   0.467   0.467   0.467   0.319   0.319   0.319
              0.079   0.079   0.042   0.079   0.042
   2  3.974   0.528   0.634   0.222   0.222   0.222   0.537   0.537   0.537
              0.126   0.126   0.079   0.126   0.079
   3  3.972   0.668   0.567   0.323   0.258   0.323   0.445   0.488   0.445
              0.102   0.110   0.075   0.110   0.056
   4  4.010   0.823   0.493   0.351   0.432   0.351   0.413   0.348   0.413
              0.100   0.090   0.047   0.090   0.058
   5  3.972   0.668   0.567   0.258   0.323   0.323   0.488   0.445   0.445
              0.110   0.110   0.061   0.102   0.070
   6  4.010   0.823   0.493   0.432   0.351   0.351   0.348   0.413   0.413
              0.090   0.090   0.055   0.100   0.049
   7  3.972   0.668   0.567   0.323   0.323   0.258   0.445   0.445   0.488
              0.110   0.102   0.061   0.110   0.070
   8  4.010   0.823   0.493   0.351   0.351   0.432   0.413   0.413   0.348
              0.090   0.100   0.055   0.090   0.049

mulliken: Qtot =       32.000

cgvc: No target stress found, assuming hydrostatic MD.TargetPressure.

cgvc: Target stress (kBar)
cgvc:        -0.000       0.000       0.000
cgvc:         0.000      -0.000       0.000
cgvc:         0.000       0.000      -0.000

* Maximum dynamic memory allocated =    61 MB

siesta:                 ==============================
                            Begin CG move =      1
                        ==============================

outcoor: Atomic coordinates (Ang):                          
   -0.02597470   -0.02597467   -0.02597467   1       1  Si
    1.35214678    1.35214681    1.35214688   1       2  Si
    2.71167737    2.71167736   -0.02661270   1       3  Si
    4.08955953    4.08955957    1.36526177   1       4  Si
    2.71167735   -0.02661288    2.71167735   1       5  Si
    4.08955954    1.36526189    4.08955948   1       6  Si
   -0.02661286    2.71167737    2.71167740   1       7  Si
    1.36526188    4.08955949    4.08955943   1       8  Si
 Kpoints in:          108 . Kpoints trimmed:          108

siesta: k-grid: Number of k-points =   108
siesta: k-grid: Cutoff (effective) =    17.310 Ang
siesta: k-grid: Supercell and displacements
siesta: k-grid:    6   0   0      0.500
siesta: k-grid:    0   6   0      0.500
siesta: k-grid:    0   0   6      0.500
Naive supercell factors:     4    4    4

superc: Internal auxiliary supercell:     4 x     4 x     4  =      64
superc: Number of atoms, orbitals, and projectors:    512   6656   8192

outcell: Unit cell vectors (Ang):
        5.770151    0.005560    0.005560
        0.005560    5.770151    0.005560
        0.005560    0.005560    5.770151

outcell: Cell vector modules (Ang)   :    5.770157    5.770157    5.770157
outcell: Cell angles (23,13,12) (deg):     89.8895     89.8895     89.8895
outcell: Cell volume (Ang**3)        :    192.1146
New_DM. Step:     2
Re-using DM from previous geometry...
Re-using DM without extrapolation (not allowed)
Density Matrix sparsity pattern changed.

InitMesh: MESH =    36 x    36 x    36 =       46656
InitMesh: Mesh cutoff (required, used) =   100.000   107.581 Ry

siesta: iscf   Eharris(eV)      E_KS(eV)   FreeEng(eV)   dDmax  Ef(eV)
siesta:    1    -1028.9322    -1028.8216    -1028.8239  0.0504 -4.9340
siesta:    2    -1029.0649    -1028.8209    -1028.8218  0.0601 -4.9274
siesta:    3    -1028.8975    -1028.8457    -1028.8457  0.0198 -4.9288
siesta:    4    -1028.8975    -1028.8783    -1028.8786  0.0018 -4.9249
siesta:    5    -1028.8975    -1028.8843    -1028.8847  0.0013 -4.9248
siesta:    6    -1028.8975    -1028.8938    -1028.8942  0.0003 -4.9248

siesta: E_KS(eV) =            -1028.8957

siesta: Atomic forces (eV/Ang):
----------------------------------------
   Tot   -0.000099   -0.000102   -0.000092
----------------------------------------
   Max    1.668662
   Res    1.076547    sqrt( Sum f_i^2 / 3N )
----------------------------------------
   Max    1.668662    constrained

Stress-tensor-Voigt (kbar):       72.54       72.54       72.54       -7.27       -7.27       -7.27
(Free)E + p*V (eV/cell)    -1037.5943
Target enthalpy (eV/cell)    -1028.8960

siesta: Stress tensor (static) (eV/Ang**3):
         0.045276   -0.004538   -0.004538
        -0.004538    0.045276   -0.004538
        -0.004538   -0.004538    0.045276

siesta: Pressure (static):        -72.54118737  kBar

siesta: Stress tensor (total) (eV/Ang**3):
         0.045276   -0.004538   -0.004538
        -0.004538    0.045276   -0.004538
        -0.004538   -0.004538    0.045276

siesta: Pressure (total):        -72.54118737  kBar

mulliken: Mulliken Atomic and Orbital Populations:

Species: Si                  
Atom  Qatom  Qorb
               3s      3s      3py     3pz     3px     3py     3pz     3px     
               3Pdxy   3Pdyz   3Pdz2   3Pdxz   3Pdx2-y2
   1  4.064   0.937   0.435   0.441   0.441   0.441   0.343   0.343   0.343
              0.084   0.084   0.044   0.084   0.044
   2  3.982   0.561   0.616   0.239   0.239   0.239   0.524   0.524   0.524
              0.122   0.122   0.075   0.122   0.075
   3  3.978   0.671   0.562   0.321   0.261   0.321   0.449   0.490   0.449
              0.103   0.111   0.070   0.111   0.056
   4  4.006   0.802   0.501   0.341   0.405   0.341   0.425   0.373   0.425
              0.102   0.093   0.048   0.093   0.058
   5  3.978   0.671   0.562   0.261   0.321   0.321   0.490   0.449   0.449
              0.111   0.111   0.060   0.103   0.067
   6  4.006   0.802   0.501   0.405   0.341   0.341   0.373   0.425   0.425
              0.093   0.093   0.056   0.102   0.051
   7  3.978   0.671   0.562   0.321   0.321   0.261   0.449   0.449   0.490
              0.111   0.103   0.060   0.111   0.067
   8  4.006   0.802   0.501   0.341   0.341   0.405   0.425   0.425   0.373
              0.093   0.102   0.056   0.093   0.051

mulliken: Qtot =       32.000

* Maximum dynamic memory allocated =    67 MB

siesta:                 ==============================
                            Begin CG move =      2
                        ==============================

outcoor: Atomic coordinates (Ang):                          
   -0.06718417   -0.06718411   -0.06718410   1       1  Si
    1.33962829    1.33962835    1.33962853   1       2  Si
    2.69817936    2.69817932   -0.06848316   1       3  Si
    4.10442914    4.10442924    1.37378908   1       4  Si
    2.69817929   -0.06848363    2.69817929   1       5  Si
    4.10442915    1.37378940    4.10442899   1       6  Si
   -0.06848358    2.69817936    2.69817942   1       7  Si
    1.37378936    4.10442902    4.10442887   1       8  Si
 Kpoints in:          108 . Kpoints trimmed:          108

siesta: k-grid: Number of k-points =   108
siesta: k-grid: Cutoff (effective) =    17.167 Ang
siesta: k-grid: Supercell and displacements
siesta: k-grid:    6   0   0      0.500
siesta: k-grid:    0   6   0      0.500
siesta: k-grid:    0   0   6      0.500
Naive supercell factors:     4    4    4

superc: Internal auxiliary supercell:     4 x     4 x     4  =      64
superc: Number of atoms, orbitals, and projectors:    512   6656   8192

outcell: Unit cell vectors (Ang):
        5.722394    0.014456    0.014456
        0.014456    5.722394    0.014456
        0.014456    0.014456    5.722394

outcell: Cell vector modules (Ang)   :    5.722430    5.722430    5.722430
outcell: Cell angles (23,13,12) (deg):     89.7101     89.7101     89.7101
outcell: Cell volume (Ang**3)        :    187.3807
New_DM. Step:     3
Re-using DM from previous geometry...
Re-using DM without extrapolation (not allowed)
Density Matrix sparsity pattern changed.

InitMesh: MESH =    36 x    36 x    36 =       46656
InitMesh: Mesh cutoff (required, used) =   100.000   109.388 Ry

siesta: iscf   Eharris(eV)      E_KS(eV)   FreeEng(eV)   dDmax  Ef(eV)
siesta:    1    -1029.8274    -1029.8120    -1029.8124  0.0497 -4.9403
siesta:    2    -1030.1437    -1029.5428    -1029.5428  0.0856 -4.9269
siesta:    3    -1029.7349    -1029.7014    -1029.7014  0.0239 -4.9368
siesta:    4    -1029.7348    -1029.6907    -1029.6907  0.0021 -4.9335
siesta:    5    -1029.7347    -1029.7037    -1029.7037  0.0016 -4.9333
siesta:    6    -1029.7347    -1029.7241    -1029.7241  0.0005 -4.9330

siesta: E_KS(eV) =            -1029.7292

siesta: Atomic forces (eV/Ang):
----------------------------------------
   Tot    0.006460    0.006459    0.006465
----------------------------------------
   Max    0.882087
   Res    0.689162    sqrt( Sum f_i^2 / 3N )
----------------------------------------
   Max    0.882087    constrained

Stress-tensor-Voigt (kbar):       68.30       68.30       68.30        1.46        1.46        1.46
(Free)E + p*V (eV/cell)    -1037.7168
Target enthalpy (eV/cell)    -1029.7292

siesta: Stress tensor (static) (eV/Ang**3):
         0.042628    0.000910    0.000910
         0.000910    0.042628    0.000910
         0.000910    0.000910    0.042628

siesta: Pressure (static):        -68.29814816  kBar

siesta: Stress tensor (total) (eV/Ang**3):
         0.042628    0.000910    0.000910
         0.000910    0.042628    0.000910
         0.000910    0.000910    0.042628

siesta: Pressure (total):        -68.29814816  kBar

mulliken: Mulliken Atomic and Orbital Populations:

Species: Si                  
Atom  Qatom  Qorb
               3s      3s      3py     3pz     3px     3py     3pz     3px     
               3Pdxy   3Pdyz   3Pdz2   3Pdxz   3Pdx2-y2
   1  4.041   0.875   0.463   0.392   0.392   0.392   0.385   0.385   0.385
              0.091   0.091   0.048   0.091   0.048
   2  3.990   0.605   0.592   0.262   0.262   0.262   0.505   0.505   0.505
              0.117   0.117   0.070   0.117   0.070
   3  3.989   0.675   0.558   0.314   0.268   0.314   0.459   0.489   0.459
              0.105   0.111   0.069   0.111   0.058
   4  4.001   0.761   0.517   0.324   0.368   0.324   0.443   0.409   0.443
              0.105   0.098   0.052   0.098   0.059
   5  3.989   0.675   0.558   0.268   0.314   0.314   0.489   0.459   0.459
              0.111   0.111   0.060   0.105   0.066
   6  4.001   0.761   0.517   0.368   0.324   0.324   0.409   0.443   0.443
              0.098   0.098   0.058   0.105   0.054
   7  3.989   0.675   0.558   0.314   0.314   0.268   0.459   0.459   0.489
              0.111   0.105   0.060   0.111   0.066
   8  4.001   0.761   0.517   0.324   0.324   0.368   0.443   0.443   0.409
              0.098   0.105   0.058   0.098   0.054

mulliken: Qtot =       32.000

* Maximum dynamic memory allocated =    68 MB

siesta:                 ==============================
                            Begin CG move =      3
                        ==============================

outcoor: Atomic coordinates (Ang):                          
   -0.13222322   -0.13222311   -0.13222309   1       1  Si
    1.31971812    1.31971825    1.31971860   1       2  Si
    2.67611708    2.67611701   -0.13365866   1       3  Si
    4.12713083    4.12713104    1.38771050   1       4  Si
    2.67611696   -0.13365957    2.67611696   1       5  Si
    4.12713085    1.38771112    4.12713056   1       6  Si
   -0.13365949    2.67611709    2.67611721   1       7  Si
    1.38771103    4.12713061    4.12713033   1       8  Si
 Kpoints in:          108 . Kpoints trimmed:          108

siesta: k-grid: Number of k-points =   108
siesta: k-grid: Cutoff (effective) =    16.938 Ang
siesta: k-grid: Supercell and displacements
siesta: k-grid:    6   0   0      0.500
siesta: k-grid:    0   6   0      0.500
siesta: k-grid:    0   0   6      0.500
Naive supercell factors:     4    4    4

superc: Internal auxiliary supercell:     4 x     4 x     4  =      64
superc: Number of atoms, orbitals, and projectors:    512   6656   8192

outcell: Unit cell vectors (Ang):
        5.645981    0.028690    0.028691
        0.028690    5.645981    0.028691
        0.028691    0.028691    5.645981

outcell: Cell vector modules (Ang)   :    5.646127    5.646127    5.646127
outcell: Cell angles (23,13,12) (deg):     89.4162     89.4162     89.4162
outcell: Cell volume (Ang**3)        :    179.9636
New_DM. Step:     4
Re-using DM from previous geometry...
Re-using DM without extrapolation (not allowed)
Density Matrix sparsity pattern changed.

InitMesh: MESH =    36 x    36 x    36 =       46656
InitMesh: Mesh cutoff (required, used) =   100.000   112.381 Ry

siesta: iscf   Eharris(eV)      E_KS(eV)   FreeEng(eV)   dDmax  Ef(eV)
siesta:    1    -1030.4256    -1030.8592    -1030.8592  0.0690 -4.8783
siesta:    2    -1031.0715    -1029.8193    -1029.8193  0.1093 -4.8401
siesta:    3    -1030.2253    -1030.3420    -1030.3420  0.0380 -4.8157
siesta:    4    -1030.2248    -1030.1501    -1030.1501  0.0030 -4.8061
siesta:    5    -1030.2245    -1030.1641    -1030.1641  0.0015 -4.8070
siesta:    6    -1030.2245    -1030.2035    -1030.2035  0.0007 -4.8085

siesta: E_KS(eV) =            -1030.2137

siesta: Atomic forces (eV/Ang):
----------------------------------------
   Tot    0.001826    0.001822    0.001819
----------------------------------------
   Max    1.178836
   Res    0.605563    sqrt( Sum f_i^2 / 3N )
----------------------------------------
   Max    1.178836    constrained

Stress-tensor-Voigt (kbar):       45.94       45.94       45.94       16.85       16.85       16.85
(Free)E + p*V (eV/cell)    -1035.3734
Target enthalpy (eV/cell)    -1030.2137

siesta: Stress tensor (static) (eV/Ang**3):
         0.028671    0.010518    0.010518
         0.010518    0.028671    0.010518
         0.010518    0.010518    0.028671

siesta: Pressure (static):        -45.93633456  kBar

siesta: Stress tensor (total) (eV/Ang**3):
         0.028671    0.010518    0.010518
         0.010518    0.028671    0.010518
         0.010518    0.010518    0.028671

siesta: Pressure (total):        -45.93633456  kBar

mulliken: Mulliken Atomic and Orbital Populations:

Species: Si                  
Atom  Qatom  Qorb
               3s      3s      3py     3pz     3px     3py     3pz     3px     
               3Pdxy   3Pdyz   3Pdz2   3Pdxz   3Pdx2-y2
   1  4.004   0.755   0.518   0.321   0.321   0.321   0.448   0.448   0.448
              0.103   0.103   0.057   0.103   0.057
   2  3.997   0.671   0.558   0.288   0.288   0.288   0.481   0.481   0.481
              0.111   0.111   0.064   0.111   0.064
   3  4.000   0.668   0.560   0.296   0.270   0.296   0.476   0.494   0.476
              0.109   0.113   0.067   0.113   0.063
   4  3.999   0.693   0.548   0.295   0.299   0.295   0.474   0.470   0.474
              0.109   0.108   0.061   0.108   0.063
   5  4.000   0.668   0.560   0.270   0.296   0.296   0.494   0.476   0.476
              0.113   0.113   0.064   0.109   0.066
   6  3.999   0.693   0.548   0.299   0.295   0.295   0.470   0.474   0.474
              0.108   0.108   0.063   0.109   0.062
   7  4.000   0.668   0.560   0.296   0.296   0.270   0.476   0.476   0.494
              0.113   0.109   0.064   0.113   0.066
   8  3.999   0.693   0.548   0.295   0.295   0.299   0.474   0.474   0.470
              0.108   0.109   0.063   0.108   0.062

mulliken: Qtot =       32.000

* Maximum dynamic memory allocated =    70 MB

siesta:                 ==============================
                            Begin CG move =      4
                        ==============================

outcoor: Atomic coordinates (Ang):                          
   -0.12899782   -0.12899771   -0.12899769   1       1  Si
    1.32071003    1.32071015    1.32071049   1       2  Si
    2.67723368    2.67723361   -0.13045336   1       3  Si
    4.12602772    4.12602792    1.38700639   1       4  Si
    2.67723356   -0.13045425    2.67723356   1       5  Si
    4.12602774    1.38700699    4.12602746   1       6  Si
   -0.13045417    2.67723368    2.67723380   1       7  Si
    1.38700691    4.12602750    4.12602723   1       8  Si
 Kpoints in:          108 . Kpoints trimmed:          108

siesta: k-grid: Number of k-points =   108
siesta: k-grid: Cutoff (effective) =    16.950 Ang
siesta: k-grid: Supercell and displacements
siesta: k-grid:    6   0   0      0.500
siesta: k-grid:    0   6   0      0.500
siesta: k-grid:    0   0   6      0.500
Naive supercell factors:     4    4    4

superc: Internal auxiliary supercell:     4 x     4 x     4  =      64
superc: Number of atoms, orbitals, and projectors:    512   6656   8192

outcell: Unit cell vectors (Ang):
        5.649801    0.027979    0.027979
        0.027979    5.649801    0.027979
        0.027979    0.027979    5.649802

outcell: Cell vector modules (Ang)   :    5.649940    5.649940    5.649940
outcell: Cell angles (23,13,12) (deg):     89.4311     89.4311     89.4311
outcell: Cell volume (Ang**3)        :    180.3299
New_DM. Step:     5
Re-using DM from previous geometry...
Re-using DM without extrapolation (not allowed)

InitMesh: MESH =    36 x    36 x    36 =       46656
InitMesh: Mesh cutoff (required, used) =   100.000   112.229 Ry

siesta: iscf   Eharris(eV)      E_KS(eV)   FreeEng(eV)   dDmax  Ef(eV)
siesta:    1    -1030.2267    -1030.1661    -1030.1661  0.0029 -4.8165
siesta:    2    -1030.2283    -1030.2251    -1030.2251  0.0059 -4.8226
siesta:    3    -1030.2262    -1030.2046    -1030.2046  0.0016 -4.8188
siesta:    4    -1030.2262    -1030.2263    -1030.2263  0.0001 -4.8191

siesta: E_KS(eV) =            -1030.2262

siesta: Atomic forces (eV/Ang):
----------------------------------------
   Tot    0.004551    0.004545    0.004545
----------------------------------------
   Max    1.151249
   Res    0.584578    sqrt( Sum f_i^2 / 3N )
----------------------------------------
   Max    1.151249    constrained

Stress-tensor-Voigt (kbar):       47.29       47.29       47.29       15.93       15.93       15.93
(Free)E + p*V (eV/cell)    -1035.5488
Target enthalpy (eV/cell)    -1030.2262

siesta: Stress tensor (static) (eV/Ang**3):
         0.029515    0.009944    0.009945
         0.009944    0.029515    0.009945
         0.009944    0.009945    0.029515

siesta: Pressure (static):        -47.28949331  kBar

siesta: Stress tensor (total) (eV/Ang**3):
         0.029515    0.009944    0.009945
         0.009944    0.029515    0.009945
         0.009944    0.009945    0.029515

siesta: Pressure (total):        -47.28949331  kBar

mulliken: Mulliken Atomic and Orbital Populations:

Species: Si                  
Atom  Qatom  Qorb
               3s      3s      3py     3pz     3px     3py     3pz     3px     
               3Pdxy   3Pdyz   3Pdz2   3Pdxz   3Pdx2-y2
   1  4.004   0.762   0.515   0.323   0.323   0.323   0.446   0.446   0.446
              0.103   0.103   0.057   0.103   0.057
   2  3.996   0.669   0.559   0.287   0.287   0.287   0.482   0.482   0.482
              0.111   0.111   0.064   0.111   0.064
   3  4.001   0.669   0.559   0.297   0.269   0.297   0.475   0.494   0.475
              0.109   0.113   0.067   0.113   0.062
   4  3.999   0.696   0.546   0.297   0.303   0.297   0.472   0.467   0.472
              0.109   0.108   0.061   0.108   0.063
   5  4.001   0.669   0.559   0.269   0.297   0.297   0.494   0.475   0.475
              0.113   0.113   0.063   0.109   0.066
   6  3.999   0.696   0.546   0.303   0.297   0.297   0.467   0.472   0.472
              0.108   0.108   0.063   0.109   0.061
   7  4.001   0.669   0.559   0.297   0.297   0.269   0.475   0.475   0.494
              0.113   0.109   0.063   0.113   0.066
   8  3.999   0.696   0.546   0.297   0.297   0.303   0.472   0.472   0.467
              0.108   0.109   0.063   0.108   0.061

mulliken: Qtot =       32.000

cgvc: Finished line minimization    1.  Mean atomic displacement =    0.1832

* Maximum dynamic memory allocated =    70 MB

siesta:                 ==============================
                            Begin CG move =      5
                        ==============================

outcoor: Atomic coordinates (Ang):                          
   -0.14656004   -0.14656008   -0.14656038   1       1  Si
    1.23824892    1.23824910    1.23824968   1       2  Si
    2.65090051    2.65090044   -0.14051355   1       3  Si
    4.03584681    4.03584672    1.25027833   1       4  Si
    2.65090057   -0.14051311    2.65089961   1       5  Si
    4.03584605    1.25027846    4.03584633   1       6  Si
   -0.14051286    2.65090084    2.65089983   1       7  Si
    1.25027838    4.03584567    4.03584628   1       8  Si
 Kpoints in:          108 . Kpoints trimmed:          108

siesta: k-grid: Number of k-points =   108
siesta: k-grid: Cutoff (effective) =    16.581 Ang
siesta: k-grid: Supercell and displacements
siesta: k-grid:    0   6   0      0.500
siesta: k-grid:    6   0   0      0.500
siesta: k-grid:    0   0   6      0.500
Naive supercell factors:     5    5    5

superc: Internal auxiliary supercell:     5 x     5 x     5  =     125
superc: Number of atoms, orbitals, and projectors:   1000  13000  16000

outcell: Unit cell vectors (Ang):
        5.527032    0.004044    0.004044
        0.004044    5.527032    0.004044
        0.004044    0.004044    5.527032

outcell: Cell vector modules (Ang)   :    5.527035    5.527035    5.527035
outcell: Cell angles (23,13,12) (deg):     89.9161     89.9161     89.9161
outcell: Cell volume (Ang**3)        :    168.8400
New_DM. Step:     6
DM reset as supercell changed.
Initializing Density Matrix...

InitMesh: MESH =    36 x    36 x    36 =       46656
InitMesh: Mesh cutoff (required, used) =   100.000   117.253 Ry

siesta: iscf   Eharris(eV)      E_KS(eV)   FreeEng(eV)   dDmax  Ef(eV)
siesta:    1    -1030.8386    -1041.0113    -1041.0113  1.7474 -5.2905
siesta:    2    -1030.6374    -1030.5897    -1030.5897  0.0778 -4.9758
siesta:    3    -1030.6314    -1030.9408    -1030.9408  0.0379 -5.0022
siesta:    4    -1030.6296    -1030.6332    -1030.6332  0.0036 -5.0186
siesta:    5    -1030.6296    -1030.6332    -1030.6332  0.0025 -5.0182
siesta:    6    -1030.6297    -1030.6269    -1030.6269  0.0005 -5.0178

siesta: E_KS(eV) =            -1030.6271

siesta: Atomic forces (eV/Ang):
----------------------------------------
   Tot   -0.001578   -0.001570   -0.001588
----------------------------------------
   Max    0.310382
   Res    0.246308    sqrt( Sum f_i^2 / 3N )
----------------------------------------
   Max    0.310382    constrained

Stress-tensor-Voigt (kbar):        3.11        3.11        3.11        2.65        2.65        2.65
(Free)E + p*V (eV/cell)    -1030.9544
Target enthalpy (eV/cell)    -1030.6271

siesta: Stress tensor (static) (eV/Ang**3):
         0.001939    0.001657    0.001656
         0.001657    0.001939    0.001656
         0.001656    0.001656    0.001938

siesta: Pressure (static):         -3.10590038  kBar

siesta: Stress tensor (total) (eV/Ang**3):
         0.001939    0.001657    0.001656
         0.001657    0.001939    0.001656
         0.001656    0.001656    0.001938

siesta: Pressure (total):         -3.10590038  kBar

mulliken: Mulliken Atomic and Orbital Populations:

Species: Si                  
Atom  Qatom  Qorb
               3s      3s      3py     3pz     3px     3py     3pz     3px     
               3Pdxy   3Pdyz   3Pdz2   3Pdxz   3Pdx2-y2
   1  4.006   0.611   0.587   0.237   0.237   0.237   0.530   0.530   0.530
              0.122   0.122   0.073   0.122   0.073
   2  3.998   0.681   0.552   0.263   0.263   0.263   0.501   0.501   0.501
              0.114   0.114   0.066   0.114   0.066
   3  3.998   0.654   0.564   0.247   0.263   0.247   0.516   0.504   0.516
              0.118   0.116   0.067   0.116   0.070
   4  4.001   0.633   0.575   0.247   0.231   0.247   0.520   0.530   0.520
              0.118   0.120   0.072   0.120   0.069
   5  3.998   0.654   0.564   0.263   0.247   0.247   0.504   0.516   0.516
              0.116   0.116   0.069   0.118   0.068
   6  4.001   0.633   0.575   0.231   0.247   0.247   0.530   0.520   0.520
              0.120   0.120   0.070   0.118   0.072
   7  3.998   0.654   0.564   0.247   0.247   0.263   0.516   0.516   0.504
              0.116   0.118   0.069   0.116   0.068
   8  4.001   0.633   0.575   0.247   0.247   0.231   0.520   0.520   0.530
              0.120   0.118   0.070   0.120   0.072

mulliken: Qtot =       32.000

* Maximum dynamic memory allocated =    75 MB

siesta:                 ==============================
                            Begin CG move =      6
                        ==============================

outcoor: Atomic coordinates (Ang):                          
   -0.14420896   -0.14420898   -0.14420923   1       1  Si
    1.24949988    1.24950005    1.24950060   1       2  Si
    2.65468190    2.65468182   -0.13905419   1       3  Si
    4.04835577    4.04835571    1.26902526   1       4  Si
    2.65468193   -0.13905393    2.65468111   1       5  Si
    4.04835512    1.26902545    4.04835532   1       6  Si
   -0.13905370    2.65468218    2.65468132   1       7  Si
    1.26902537    4.04835475    4.04835524   1       8  Si
 Kpoints in:          108 . Kpoints trimmed:          108

siesta: k-grid: Number of k-points =   108
siesta: k-grid: Cutoff (effective) =    16.632 Ang
siesta: k-grid: Supercell and displacements
siesta: k-grid:    0   6   0      0.500
siesta: k-grid:    6   0   0      0.500
siesta: k-grid:    0   0   6      0.500
Naive supercell factors:     5    5    5

superc: Internal auxiliary supercell:     5 x     5 x     5  =     125
superc: Number of atoms, orbitals, and projectors:   1000  13000  16000

outcell: Unit cell vectors (Ang):
        5.544018    0.007356    0.007355
        0.007356    5.544018    0.007355
        0.007355    0.007355    5.544018

outcell: Cell vector modules (Ang)   :    5.544028    5.544028    5.544028
outcell: Cell angles (23,13,12) (deg):     89.8479     89.8479     89.8479
outcell: Cell volume (Ang**3)        :    170.4008
New_DM. Step:     7
Re-using DM from previous geometry...
Re-using DM without extrapolation (not allowed)
Density Matrix sparsity pattern changed.

InitMesh: MESH =    36 x    36 x    36 =       46656
InitMesh: Mesh cutoff (required, used) =   100.000   116.536 Ry

siesta: iscf   Eharris(eV)      E_KS(eV)   FreeEng(eV)   dDmax  Ef(eV)
siesta:    1    -1030.6396    -1030.3867    -1030.3867  0.0071 -4.9744
siesta:    2    -1030.6489    -1030.6304    -1030.6304  0.0145 -4.9723
siesta:    3    -1030.6365    -1030.5699    -1030.5699  0.0036 -4.9741
siesta:    4    -1030.6365    -1030.6346    -1030.6346  0.0002 -4.9750

siesta: E_KS(eV) =            -1030.6352

siesta: Atomic forces (eV/Ang):
----------------------------------------
   Tot   -0.007610   -0.007601   -0.007613
----------------------------------------
   Max    0.369349
   Res    0.209516    sqrt( Sum f_i^2 / 3N )
----------------------------------------
   Max    0.369349    constrained

Stress-tensor-Voigt (kbar):       10.59       10.59       10.59        5.15        5.15        5.15
(Free)E + p*V (eV/cell)    -1031.7611
Target enthalpy (eV/cell)    -1030.6352

siesta: Stress tensor (static) (eV/Ang**3):
         0.006607    0.003217    0.003217
         0.003217    0.006607    0.003217
         0.003217    0.003217    0.006607

siesta: Pressure (static):        -10.58621819  kBar

siesta: Stress tensor (total) (eV/Ang**3):
         0.006607    0.003217    0.003217
         0.003217    0.006607    0.003217
         0.003217    0.003217    0.006607

siesta: Pressure (total):        -10.58621819  kBar

mulliken: Mulliken Atomic and Orbital Populations:

Species: Si                  
Atom  Qatom  Qorb
               3s      3s      3py     3pz     3px     3py     3pz     3px     
               3Pdxy   3Pdyz   3Pdz2   3Pdxz   3Pdx2-y2
   1  4.001   0.630   0.577   0.248   0.248   0.248   0.518   0.518   0.518
              0.119   0.119   0.070   0.119   0.070
   2  3.998   0.681   0.552   0.266   0.266   0.266   0.498   0.498   0.498
              0.114   0.114   0.066   0.114   0.066
   3  4.000   0.658   0.562   0.255   0.264   0.255   0.510   0.503   0.510
              0.117   0.115   0.067   0.115   0.069
   4  4.001   0.643   0.570   0.254   0.242   0.254   0.513   0.521   0.513
              0.117   0.118   0.071   0.118   0.068
   5  4.000   0.658   0.562   0.264   0.255   0.255   0.503   0.510   0.510
              0.115   0.115   0.068   0.117   0.067
   6  4.001   0.643   0.570   0.242   0.254   0.254   0.521   0.513   0.513
              0.118   0.118   0.069   0.117   0.070
   7  4.000   0.658   0.562   0.255   0.255   0.264   0.510   0.510   0.503
              0.115   0.117   0.068   0.115   0.067
   8  4.001   0.643   0.570   0.254   0.254   0.242   0.513   0.513   0.521
              0.118   0.117   0.069   0.118   0.070

mulliken: Qtot =       32.000

cgvc: Finished line minimization    2.  Mean atomic displacement =    0.1578

* Maximum dynamic memory allocated =    81 MB

siesta:                 ==============================
                            Begin CG move =      7
                        ==============================

outcoor: Atomic coordinates (Ang):                          
   -0.09119148   -0.09119120   -0.09119118   1       1  Si
    1.24846573    1.24846595    1.24846454   1       2  Si
    2.60053073    2.60053101   -0.08978815   1       3  Si
    3.93511248    3.93511211    1.21501114   1       4  Si
    2.60053037   -0.08978771    2.60053408   1       5  Si
    3.93511366    1.21501240    3.93511203   1       6  Si
   -0.08978825    2.60053010    2.60053283   1       7  Si
    1.21501268    3.93511455    3.93511277   1       8  Si
 Kpoints in:          108 . Kpoints trimmed:          108

siesta: k-grid: Number of k-points =   108
siesta: k-grid: Cutoff (effective) =    16.485 Ang
siesta: k-grid: Supercell and displacements
siesta: k-grid:    6   0   0      0.500
siesta: k-grid:    0   6   0      0.500
siesta: k-grid:    0   0   6      0.500
Naive supercell factors:     5    5    5

superc: Internal auxiliary supercell:     5 x     5 x     5  =     125
superc: Number of atoms, orbitals, and projectors:   1000  13000  16000

outcell: Unit cell vectors (Ang):
        5.495069   -0.018994   -0.018993
       -0.018994    5.495069   -0.018993
       -0.018993   -0.018993    5.495070

outcell: Cell vector modules (Ang)   :    5.495135    5.495135    5.495135
outcell: Cell angles (23,13,12) (deg):     90.3954     90.3954     90.3954
outcell: Cell volume (Ang**3)        :    165.9220
New_DM. Step:     8
Re-using DM from previous geometry...
Re-using DM without extrapolation (not allowed)
Density Matrix sparsity pattern changed.

InitMesh: MESH =    36 x    36 x    36 =       46656
InitMesh: Mesh cutoff (required, used) =   100.000   118.629 Ry

siesta: iscf   Eharris(eV)      E_KS(eV)   FreeEng(eV)   dDmax  Ef(eV)
siesta:    1    -1030.5619    -1031.1537    -1031.1537  0.0353 -5.0117
siesta:    2    -1031.1511    -1029.9966    -1029.9966  0.1271 -5.0401
siesta:    3    -1030.3743    -1030.5399    -1030.5399  0.0266 -5.0234
siesta:    4    -1030.3741    -1030.3011    -1030.3011  0.0028 -5.0186
siesta:    5    -1030.3740    -1030.3147    -1030.3147  0.0010 -5.0187
siesta:    6    -1030.3739    -1030.3531    -1030.3531  0.0004 -5.0191

siesta: E_KS(eV) =            -1030.3651

siesta: Atomic forces (eV/Ang):
----------------------------------------
   Tot    0.000604    0.000580    0.000576
----------------------------------------
   Max    1.309575
   Res    0.766217    sqrt( Sum f_i^2 / 3N )
----------------------------------------
   Max    1.309575    constrained

Stress-tensor-Voigt (kbar):      -16.41      -16.41      -16.41      -22.31      -22.31      -22.31
(Free)E + p*V (eV/cell)    -1028.6654
Target enthalpy (eV/cell)    -1030.3651

siesta: Stress tensor (static) (eV/Ang**3):
        -0.010244   -0.013925   -0.013924
        -0.013925   -0.010244   -0.013924
        -0.013924   -0.013924   -0.010244

siesta: Pressure (static):         16.41226491  kBar

siesta: Stress tensor (total) (eV/Ang**3):
        -0.010244   -0.013925   -0.013924
        -0.013925   -0.010244   -0.013924
        -0.013924   -0.013924   -0.010244

siesta: Pressure (total):         16.41226491  kBar

mulliken: Mulliken Atomic and Orbital Populations:

Species: Si                  
Atom  Qatom  Qorb
               3s      3s      3py     3pz     3px     3py     3pz     3px     
               3Pdxy   3Pdyz   3Pdz2   3Pdxz   3Pdx2-y2
   1  3.998   0.681   0.551   0.255   0.255   0.255   0.507   0.507   0.507
              0.115   0.115   0.067   0.115   0.067
   2  4.008   0.560   0.613   0.206   0.206   0.206   0.558   0.558   0.558
              0.128   0.128   0.079   0.128   0.079
   3  4.000   0.608   0.588   0.235   0.208   0.235   0.531   0.548   0.531
              0.121   0.123   0.076   0.123   0.071
   4  3.998   0.649   0.568   0.232   0.266   0.232   0.528   0.504   0.528
              0.121   0.117   0.067   0.117   0.073
   5  4.000   0.608   0.588   0.208   0.235   0.235   0.548   0.531   0.531
              0.123   0.123   0.073   0.121   0.075
   6  3.998   0.649   0.568   0.266   0.232   0.232   0.504   0.528   0.528
              0.117   0.117   0.071   0.121   0.068
   7  4.000   0.608   0.588   0.235   0.235   0.208   0.531   0.531   0.548
              0.123   0.121   0.073   0.123   0.075
   8  3.998   0.649   0.568   0.232   0.232   0.266   0.528   0.528   0.504
              0.117   0.121   0.071   0.117   0.068

mulliken: Qtot =       32.000

* Maximum dynamic memory allocated =    81 MB

siesta:                 ==============================
                            Begin CG move =      8
                        ==============================

outcoor: Atomic coordinates (Ang):                          
   -0.13124366   -0.13124361   -0.13124380   1       1  Si
    1.24932472    1.24932490    1.24932498   1       2  Si
    2.64163219    2.64163220   -0.12707956   1       3  Si
    4.02089322    4.02089309    1.25589106   1       4  Si
    2.64163213   -0.12707926    2.64163240   1       5  Si
    4.02089302    1.25589151    4.02089277   1       6  Si
   -0.12707921    2.64163226    2.64163226   1       7  Si
    1.25589152    4.02089296    4.02089290   1       8  Si
 Kpoints in:          108 . Kpoints trimmed:          108

siesta: k-grid: Number of k-points =   108
siesta: k-grid: Cutoff (effective) =    16.597 Ang
siesta: k-grid: Supercell and displacements
siesta: k-grid:    0   6   0      0.500
siesta: k-grid:    6   0   0      0.500
siesta: k-grid:    0   0   6      0.500
Naive supercell factors:     5    5    5

superc: Internal auxiliary supercell:     5 x     5 x     5  =     125
superc: Number of atoms, orbitals, and projectors:   1000  13000  16000

outcell: Unit cell vectors (Ang):
        5.532206    0.000997    0.000997
        0.000997    5.532206    0.000997
        0.000997    0.000997    5.532207

outcell: Cell vector modules (Ang)   :    5.532207    5.532207    5.532207
outcell: Cell angles (23,13,12) (deg):     89.9793     89.9793     89.9793
outcell: Cell volume (Ang**3)        :    169.3149
New_DM. Step:     9
Re-using DM from previous geometry...
Re-using DM without extrapolation (not allowed)
Density Matrix sparsity pattern changed.

InitMesh: MESH =    36 x    36 x    36 =       46656
InitMesh: Mesh cutoff (required, used) =   100.000   117.033 Ry

siesta: iscf   Eharris(eV)      E_KS(eV)   FreeEng(eV)   dDmax  Ef(eV)
siesta:    1    -1030.7807    -1029.9715    -1029.9715  0.0300 -4.9713
siesta:    2    -1031.1243    -1030.4498    -1030.4498  0.0772 -5.0068
siesta:    3    -1030.6714    -1030.3498    -1030.3498  0.0237 -4.9811
siesta:    4    -1030.6713    -1030.6275    -1030.6275  0.0011 -4.9824
siesta:    5    -1030.6712    -1030.6430    -1030.6430  0.0006 -4.9822

siesta: E_KS(eV) =            -1030.6595

siesta: Atomic forces (eV/Ang):
----------------------------------------
   Tot   -0.000870   -0.000873   -0.000849
----------------------------------------
   Max    0.078495
   Res    0.050980    sqrt( Sum f_i^2 / 3N )
----------------------------------------
   Max    0.078495    constrained

Stress-tensor-Voigt (kbar):        6.02        6.02        6.02       -0.52       -0.52       -0.52
(Free)E + p*V (eV/cell)    -1031.2961
Target enthalpy (eV/cell)    -1030.6595

siesta: Stress tensor (static) (eV/Ang**3):
         0.003760   -0.000324   -0.000324
        -0.000324    0.003760   -0.000324
        -0.000324   -0.000324    0.003760

siesta: Pressure (static):         -6.02462354  kBar

siesta: Stress tensor (total) (eV/Ang**3):
         0.003760   -0.000324   -0.000324
        -0.000324    0.003760   -0.000324
        -0.000324   -0.000324    0.003760

siesta: Pressure (total):         -6.02462354  kBar

mulliken: Mulliken Atomic and Orbital Populations:

Species: Si                  
Atom  Qatom  Qorb
               3s      3s      3py     3pz     3px     3py     3pz     3px     
               3Pdxy   3Pdyz   3Pdz2   3Pdxz   3Pdx2-y2
   1  4.000   0.643   0.570   0.250   0.250   0.250   0.515   0.515   0.515
              0.118   0.118   0.069   0.118   0.069
   2  4.000   0.654   0.565   0.251   0.251   0.251   0.513   0.513   0.513
              0.117   0.117   0.068   0.117   0.068
   3  3.999   0.647   0.568   0.251   0.253   0.251   0.514   0.513   0.514
              0.117   0.117   0.069   0.117   0.069
   4  4.000   0.647   0.568   0.248   0.246   0.248   0.517   0.518   0.517
              0.118   0.118   0.069   0.118   0.069
   5  3.999   0.647   0.568   0.253   0.251   0.251   0.513   0.514   0.514
              0.117   0.117   0.069   0.117   0.069
   6  4.000   0.647   0.568   0.246   0.248   0.248   0.518   0.517   0.517
              0.118   0.118   0.069   0.118   0.069
   7  3.999   0.647   0.568   0.251   0.251   0.253   0.514   0.514   0.513
              0.117   0.117   0.069   0.117   0.069
   8  4.000   0.647   0.568   0.248   0.248   0.246   0.517   0.517   0.518
              0.118   0.118   0.069   0.118   0.069

mulliken: Qtot =       32.000

cgvc: Finished line minimization    3.  Mean atomic displacement =    0.0381

* Maximum dynamic memory allocated =    82 MB

siesta:                 ==============================
                            Begin CG move =      9
                        ==============================

outcoor: Atomic coordinates (Ang):                          
   -0.13164196   -0.13164254   -0.13164226   1       1  Si
    1.25603115    1.25603085    1.25603049   1       2  Si
    2.61751235    2.61751235   -0.12373571   1       3  Si
    4.00700684    4.00700709    1.25933359   1       4  Si
    2.61751139   -0.12373571    2.61751283   1       5  Si
    4.00700763    1.25933359    4.00700774   1       6  Si
   -0.12373649    2.61751167    2.61751322   1       7  Si
    1.25933380    4.00700781    4.00700758   1       8  Si
 Kpoints in:          108 . Kpoints trimmed:          108

siesta: k-grid: Number of k-points =   108
siesta: k-grid: Cutoff (effective) =    16.518 Ang
siesta: k-grid: Supercell and displacements
siesta: k-grid:    6   0   0      0.500
siesta: k-grid:    0   6   0      0.500
siesta: k-grid:    0   0   6      0.500
Naive supercell factors:     5    5    5

superc: Internal auxiliary supercell:     5 x     5 x     5  =     125
superc: Number of atoms, orbitals, and projectors:   1000  13000  16000

outcell: Unit cell vectors (Ang):
        5.506094    0.002900    0.002900
        0.002900    5.506094    0.002900
        0.002900    0.002900    5.506094

outcell: Cell vector modules (Ang)   :    5.506096    5.506096    5.506096
outcell: Cell angles (23,13,12) (deg):     89.9396     89.9396     89.9396
outcell: Cell volume (Ang**3)        :    166.9285
New_DM. Step:    10
Re-using DM from previous geometry...
Re-using DM without extrapolation (not allowed)
Density Matrix sparsity pattern changed.

InitMesh: MESH =    36 x    36 x    36 =       46656
InitMesh: Mesh cutoff (required, used) =   100.000   118.146 Ry

siesta: iscf   Eharris(eV)      E_KS(eV)   FreeEng(eV)   dDmax  Ef(eV)
siesta:    1    -1030.6662    -1031.0204    -1031.0204  0.0111 -4.9968
siesta:    2    -1030.6763    -1030.6559    -1030.6559  0.0161 -4.9916
siesta:    3    -1030.6626    -1030.7201    -1030.7201  0.0032 -4.9934
siesta:    4    -1030.6626    -1030.6603    -1030.6603  0.0004 -4.9926

siesta: E_KS(eV) =            -1030.6604

siesta: Atomic forces (eV/Ang):
----------------------------------------
   Tot   -0.003626   -0.003646   -0.003652
----------------------------------------
   Max    0.193776
   Res    0.138407    sqrt( Sum f_i^2 / 3N )
----------------------------------------
   Max    0.193776    constrained

Stress-tensor-Voigt (kbar):       -5.88       -5.88       -5.88        4.56        4.56        4.56
(Free)E + p*V (eV/cell)    -1030.0483
Target enthalpy (eV/cell)    -1030.6604

siesta: Stress tensor (static) (eV/Ang**3):
        -0.003667    0.002845    0.002845
         0.002845   -0.003667    0.002845
         0.002845    0.002845   -0.003667

siesta: Pressure (static):          5.87507717  kBar

siesta: Stress tensor (total) (eV/Ang**3):
        -0.003667    0.002845    0.002845
         0.002845   -0.003667    0.002845
         0.002845    0.002845   -0.003667

siesta: Pressure (total):          5.87507717  kBar

mulliken: Mulliken Atomic and Orbital Populations:

Species: Si                  
Atom  Qatom  Qorb
               3s      3s      3py     3pz     3px     3py     3pz     3px     
               3Pdxy   3Pdyz   3Pdz2   3Pdxz   3Pdx2-y2
   1  3.999   0.637   0.573   0.242   0.242   0.242   0.522   0.522   0.522
              0.119   0.119   0.070   0.119   0.070
   2  4.002   0.626   0.578   0.235   0.235   0.235   0.529   0.529   0.529
              0.121   0.121   0.072   0.121   0.072
   3  4.000   0.632   0.575   0.241   0.238   0.241   0.524   0.525   0.524
              0.119   0.120   0.071   0.120   0.071
   4  4.000   0.639   0.572   0.237   0.242   0.237   0.526   0.523   0.526
              0.120   0.119   0.070   0.119   0.071
   5  4.000   0.632   0.575   0.238   0.241   0.241   0.525   0.524   0.524
              0.120   0.120   0.071   0.119   0.071
   6  4.000   0.639   0.572   0.242   0.237   0.237   0.523   0.526   0.526
              0.119   0.119   0.071   0.120   0.070
   7  4.000   0.632   0.575   0.241   0.241   0.238   0.524   0.524   0.525
              0.120   0.119   0.071   0.120   0.071
   8  4.000   0.639   0.572   0.237   0.237   0.242   0.526   0.526   0.523
              0.119   0.120   0.071   0.119   0.070

mulliken: Qtot =       32.000

* Maximum dynamic memory allocated =    82 MB

siesta:                 ==============================
                            Begin CG move =     10
                        ==============================

outcoor: Atomic coordinates (Ang):                          
   -0.13138396   -0.13138413   -0.13138415   1       1  Si
    1.25168350    1.25168351    1.25168343   1       2  Si
    2.63317507    2.63317508   -0.12590588   1       3  Si
    4.01603425    4.01603425    1.25710291   1       4  Si
    2.63317470   -0.12590568    2.63317538   1       5  Si
    4.01603440    1.25710321    4.01603427   1       6  Si
   -0.12590592    2.63317488    2.63317542   1       7  Si
    1.25710329    4.01603442    4.01603430   1       8  Si
 Kpoints in:          108 . Kpoints trimmed:          108

siesta: k-grid: Number of k-points =   108
siesta: k-grid: Cutoff (effective) =    16.569 Ang
siesta: k-grid: Supercell and displacements
siesta: k-grid:    6   0   0      0.500
siesta: k-grid:    0   6   0      0.500
siesta: k-grid:    0   0   6      0.500
Naive supercell factors:     5    5    5

superc: Internal auxiliary supercell:     5 x     5 x     5  =     125
superc: Number of atoms, orbitals, and projectors:   1000  13000  16000

outcell: Unit cell vectors (Ang):
        5.523064    0.001663    0.001663
        0.001663    5.523064    0.001663
        0.001663    0.001663    5.523064

outcell: Cell vector modules (Ang)   :    5.523065    5.523065    5.523065
outcell: Cell angles (23,13,12) (deg):     89.9655     89.9655     89.9655
outcell: Cell volume (Ang**3)        :    168.4768
New_DM. Step:    11
Re-using DM from previous geometry...
Re-using DM without extrapolation (not allowed)
Density Matrix sparsity pattern changed.

InitMesh: MESH =    36 x    36 x    36 =       46656
InitMesh: Mesh cutoff (required, used) =   100.000   117.421 Ry

siesta: iscf   Eharris(eV)      E_KS(eV)   FreeEng(eV)   dDmax  Ef(eV)
siesta:    1    -1030.6761    -1030.4249    -1030.4249  0.0078 -4.9793
siesta:    2    -1030.6804    -1030.6713    -1030.6713  0.0103 -4.9833
siesta:    3    -1030.6744    -1030.6315    -1030.6315  0.0022 -4.9819
siesta:    4    -1030.6744    -1030.6732    -1030.6732  0.0003 -4.9823

siesta: E_KS(eV) =            -1030.6741

siesta: Atomic forces (eV/Ang):
----------------------------------------
   Tot   -0.001038   -0.001039   -0.001025
----------------------------------------
   Max    0.032801
   Res    0.026330    sqrt( Sum f_i^2 / 3N )
----------------------------------------
   Max    0.032801    constrained

Stress-tensor-Voigt (kbar):        1.83        1.83        1.83        1.09        1.09        1.09
(Free)E + p*V (eV/cell)    -1030.8666
Target enthalpy (eV/cell)    -1030.6741

siesta: Stress tensor (static) (eV/Ang**3):
         0.001142    0.000678    0.000678
         0.000678    0.001142    0.000678
         0.000678    0.000678    0.001142

siesta: Pressure (static):         -1.83022727  kBar

siesta: Stress tensor (total) (eV/Ang**3):
         0.001142    0.000678    0.000678
         0.000678    0.001142    0.000678
         0.000678    0.000678    0.001142

siesta: Pressure (total):         -1.83022727  kBar

mulliken: Mulliken Atomic and Orbital Populations:

Species: Si                  
Atom  Qatom  Qorb
               3s      3s      3py     3pz     3px     3py     3pz     3px     
               3Pdxy   3Pdyz   3Pdz2   3Pdxz   3Pdx2-y2
   1  4.000   0.641   0.571   0.248   0.248   0.248   0.517   0.517   0.517
              0.118   0.118   0.070   0.118   0.070
   2  4.000   0.645   0.569   0.245   0.245   0.245   0.519   0.519   0.519
              0.118   0.118   0.070   0.118   0.070
   3  4.000   0.641   0.571   0.248   0.248   0.248   0.517   0.517   0.517
              0.118   0.118   0.070   0.118   0.070
   4  4.000   0.645   0.569   0.245   0.245   0.245   0.520   0.520   0.520
              0.118   0.118   0.070   0.118   0.070
   5  4.000   0.641   0.571   0.248   0.248   0.248   0.517   0.517   0.517
              0.118   0.118   0.070   0.118   0.070
   6  4.000   0.645   0.569   0.245   0.245   0.245   0.520   0.520   0.520
              0.118   0.118   0.070   0.118   0.070
   7  4.000   0.641   0.571   0.248   0.248   0.248   0.517   0.517   0.517
              0.118   0.118   0.070   0.118   0.070
   8  4.000   0.645   0.569   0.245   0.245   0.245   0.520   0.520   0.520
              0.118   0.118   0.070   0.118   0.070

mulliken: Qtot =       32.000

* Maximum dynamic memory allocated =    82 MB

outcoor: Relaxed atomic coordinates (Ang):                  
   -0.13138396   -0.13138413   -0.13138415   1       1  Si
    1.25168350    1.25168351    1.25168343   1       2  Si
    2.63317507    2.63317508   -0.12590588   1       3  Si
    4.01603425    4.01603425    1.25710291   1       4  Si
    2.63317470   -0.12590568    2.63317538   1       5  Si
    4.01603440    1.25710321    4.01603427   1       6  Si
   -0.12590592    2.63317488    2.63317542   1       7  Si
    1.25710329    4.01603442    4.01603430   1       8  Si

outcell: Unit cell vectors (Ang):
        5.523064    0.001663    0.001663
        0.001663    5.523064    0.001663
        0.001663    0.001663    5.523064

outcell: Cell vector modules (Ang)   :    5.523065    5.523065    5.523065
outcell: Cell angles (23,13,12) (deg):     89.9655     89.9655     89.9655
outcell: Cell volume (Ang**3)        :    168.4768

coxmol: Writing XMOL coordinates into file si.xyz                                                          
Writing WFSX for selected k-points in si.selected.WFSX

writewave: Wave Functions Coefficients

     Number of k-points =        1
        Number of Spins =        1
   Number of basis orbs =      104


                                                                  ******
            k-point =        1    0.000000  0.000000  0.000000
     Spin component =        1
 Num. wavefunctions =       50
Use readwfsx utility to print wavefunction coefficients from WFSX file
Computing bands...

siesta: Band k vectors (Bohr**-1):
  ik           k
   1    0.286631    0.286631    0.286631
   2    0.275166    0.275166    0.275166
   3    0.263700    0.263700    0.263700
   4    0.252235    0.252235    0.252235
   5    0.240770    0.240770    0.240770
   6    0.229305    0.229305    0.229305
   7    0.217839    0.217839    0.217839
   8    0.206374    0.206374    0.206374
   9    0.194909    0.194909    0.194909
  10    0.183444    0.183444    0.183444
  11    0.171978    0.171978    0.171978
  12    0.160513    0.160513    0.160513
  13    0.149048    0.149048    0.149048
  14    0.137583    0.137583    0.137583
  15    0.126118    0.126118    0.126118
  16    0.114652    0.114652    0.114652
  17    0.103187    0.103187    0.103187
  18    0.091722    0.091722    0.091722
  19    0.080257    0.080257    0.080257
  20    0.068791    0.068791    0.068791
  21    0.057326    0.057326    0.057326
  22    0.045861    0.045861    0.045861
  23    0.034396    0.034396    0.034396
  24    0.022930    0.022930    0.022930
  25    0.011465    0.011465    0.011465
  26    0.000000    0.000000    0.000000
  27    0.019109    0.000000    0.000000
  28    0.038217    0.000000    0.000000
  29    0.057326    0.000000    0.000000
  30    0.076435    0.000000    0.000000
  31    0.095544    0.000000    0.000000
  32    0.114652    0.000000    0.000000
  33    0.133761    0.000000    0.000000
  34    0.152870    0.000000    0.000000
  35    0.171978    0.000000    0.000000
  36    0.191087    0.000000    0.000000
  37    0.210196    0.000000    0.000000
  38    0.229305    0.000000    0.000000
  39    0.248413    0.000000    0.000000
  40    0.267522    0.000000    0.000000
  41    0.286631    0.000000    0.000000
  42    0.305740    0.000000    0.000000
  43    0.324848    0.000000    0.000000
  44    0.343957    0.000000    0.000000
  45    0.363066    0.000000    0.000000
  46    0.382174    0.000000    0.000000
  47    0.401283    0.000000    0.000000
  48    0.420392    0.000000    0.000000
  49    0.439501    0.000000    0.000000
  50    0.458609    0.000000    0.000000
  51    0.477718    0.000000    0.000000
  52    0.496827    0.000000    0.000000
  53    0.515935    0.000000    0.000000
  54    0.535044    0.000000    0.000000
  55    0.554153    0.000000    0.000000
  56    0.573262    0.000000    0.000000
  57    0.573262    0.014332    0.014332
  58    0.573262    0.028663    0.028663
  59    0.573262    0.042995    0.042995
  60    0.573262    0.057326    0.057326
  61    0.573262    0.071658    0.071658
  62    0.573262    0.085989    0.085989
  63    0.573262    0.100321    0.100321
  64    0.573262    0.114652    0.114652
  65    0.573262    0.128984    0.128984
  66    0.573262    0.143315    0.143315
  67    0.556883    0.139221    0.139221
  68    0.540504    0.135126    0.135126
  69    0.524125    0.131031    0.131031
  70    0.507746    0.126936    0.126936
  71    0.491367    0.122842    0.122842
  72    0.474988    0.118747    0.118747
  73    0.458609    0.114652    0.114652
  74    0.442230    0.110558    0.110558
  75    0.425851    0.106463    0.106463
  76    0.409473    0.102368    0.102368
  77    0.393094    0.098273    0.098273
  78    0.376715    0.094179    0.094179
  79    0.360336    0.090084    0.090084
  80    0.343957    0.085989    0.085989
  81    0.327578    0.081895    0.081895
  82    0.311199    0.077800    0.077800
  83    0.294820    0.073705    0.073705
  84    0.278441    0.069610    0.069610
  85    0.262062    0.065516    0.065516
  86    0.245684    0.061421    0.061421
  87    0.229305    0.057326    0.057326
  88    0.212926    0.053231    0.053231
  89    0.196547    0.049137    0.049137
  90    0.180168    0.045042    0.045042
  91    0.163789    0.040947    0.040947
  92    0.147410    0.036853    0.036853
  93    0.131031    0.032758    0.032758
  94    0.114652    0.028663    0.028663
  95    0.098273    0.024568    0.024568
  96    0.081895    0.020474    0.020474
  97    0.065516    0.016379    0.016379
  98    0.049137    0.012284    0.012284
  99    0.032758    0.008189    0.008189
 100    0.016379    0.004095    0.004095
 101    0.000000    0.000000    0.000000

siesta: Band energies (eV):
  ik is    eps
   1  1 -14.89 -14.84 -14.84 -14.84 -12.19 -12.18 -12.18 -12.13  -6.64  -6.64
         -6.64  -6.61  -6.61  -6.61  -6.58  -6.58  -3.99  -3.94  -3.94  -3.94
         -1.96  -1.96  -1.96  -1.93  -1.93  -1.89  -1.89  -1.89   3.49   3.49
          3.49   3.50   5.16   5.16   5.16   5.28   5.28   5.58   5.58   5.58
          5.86   6.00   6.00   6.00   6.08   6.08   6.08   6.38   6.38   6.45
          6.45   6.45   8.37   8.37   8.37   8.37  16.33  16.40  16.40  16.40
         17.28  17.28  17.30  17.30  17.30  17.36  17.36  17.36  19.34  19.34
         19.34  19.35  19.35  19.35  19.44  19.44  19.66  19.66  19.66  20.01
         28.83  28.83  28.83  28.86  28.86  28.86  28.93  28.93  64.30  65.23
         65.23  65.24  72.91  72.91  72.92  76.70  76.72  76.72  78.74  78.74
        113.84 116.29 116.29 116.31
   2  1 -14.95 -14.84 -14.84 -14.84 -12.17 -12.17 -12.17 -12.04  -6.76  -6.76
         -6.76  -6.64  -6.64  -6.64  -6.57  -6.57  -3.98  -3.82  -3.82  -3.82
         -1.98  -1.98  -1.98  -1.92  -1.92  -1.83  -1.83  -1.83   3.41   3.41
          3.41   3.48   4.76   4.76   4.76   4.91   4.91   5.54   5.54   5.54
          5.71   6.06   6.06   6.06   6.13   6.13   6.13   6.79   6.79   6.96
          6.96   6.96   8.42   8.42   8.42   8.49  16.19  16.35  16.35  16.35
         17.07  17.07  17.15  17.15  17.15  17.31  17.31  17.31  19.10  19.10
         19.10  19.27  19.27  19.27  19.34  19.35  19.35  19.57  19.57  20.25
         28.65  28.65  28.65  28.96  28.96  28.97  29.00  29.00  61.96  62.22
         62.22  62.23  67.61  67.61  67.61  72.29  72.30  72.30  78.44  78.44
        109.16 111.58 111.58 111.60
   3  1 -15.04 -14.83 -14.83 -14.83 -12.14 -12.14 -12.14 -11.91  -6.93  -6.93
         -6.93  -6.69  -6.69  -6.69  -6.56  -6.56  -3.96  -3.66  -3.66  -3.66
         -2.01  -2.01  -2.01  -1.91  -1.91  -1.74  -1.74  -1.74   3.25   3.25
          3.25   3.45   4.46   4.46   4.46   4.55   4.55   5.50   5.50   5.50
          5.51   6.13   6.13   6.13   6.21   6.21   6.21   7.22   7.22   7.48
          7.48   7.48   8.50   8.50   8.51   8.64  16.02  16.22  16.22  16.22
         16.79  16.79  16.93  16.93  16.93  17.27  17.27  17.27  18.51  18.51
         18.51  19.15  19.15  19.15  19.34  19.34  19.34  19.73  19.73  20.58
         28.37  28.37  28.37  29.09  29.09  29.17  29.17  29.17  55.50  55.50
         55.50  58.54  67.09  67.09  67.11  67.31  67.33  67.33  77.96  77.96
        102.66 102.66 102.67 103.79
   4  1 -15.15 -14.81 -14.81 -14.81 -12.11 -12.11 -12.11 -11.73  -7.13  -7.13
         -7.13  -6.75  -6.75  -6.75  -6.54  -6.54  -3.94  -3.49  -3.49  -3.49
         -2.02  -2.02  -2.02  -1.90  -1.90  -1.61  -1.61  -1.61   2.97   2.97
          2.97   3.39   4.20   4.20   4.29   4.30   4.30   5.30   5.46   5.46
          5.46   6.23   6.23   6.23   6.30   6.30   6.30   7.67   7.67   7.95
          7.95   7.95   8.67   8.67   8.67   8.78  15.86  15.97  15.97  15.97
         16.45  16.45  16.64  16.64  16.64  17.23  17.23  17.23  18.05  18.05
         18.05  18.98  18.98  18.98  19.36  19.36  19.36  19.91  19.91  20.97
         27.98  27.98  27.98  29.22  29.22  29.49  29.49  29.49  49.52  49.52
         49.52  54.47  62.88  62.88  62.88  67.19  67.19  67.19  77.29  77.29
         93.85  93.85  93.85  98.80
   5  1 -15.27 -14.79 -14.79 -14.79 -12.06 -12.06 -12.06 -11.52  -7.34  -7.34
         -7.34  -6.83  -6.83  -6.83  -6.51  -6.51  -3.91  -3.34  -3.34  -3.34
         -1.99  -1.99  -1.99  -1.88  -1.88  -1.46  -1.46  -1.46   2.60   2.60
          2.60   3.30   3.86   3.86   4.24   4.24   4.24   5.11   5.42   5.42
          5.42   6.34   6.34   6.34   6.40   6.40   6.40   8.11   8.11   8.29
          8.29   8.29   8.87   9.01   9.01   9.01  15.62  15.62  15.62  15.74
         16.09  16.09  16.31  16.31  16.31  17.17  17.17  17.17  17.81  17.81
         17.81  18.78  18.78  18.78  19.39  19.39  19.39  20.07  20.07  21.40
         27.49  27.50  27.50  29.37  29.37  29.92  29.92  29.92  44.57  44.57
         44.58  50.31  59.46  59.46  59.46  67.12  67.12  67.12  76.47  76.47
         87.42  87.43  87.43  94.49
   6  1 -15.40 -14.77 -14.77 -14.77 -12.02 -12.02 -12.02 -11.29  -7.56  -7.56
         -7.56  -6.91  -6.91  -6.91  -6.48  -6.48  -3.88  -3.25  -3.25  -3.25
         -1.89  -1.89  -1.89  -1.86  -1.86  -1.27  -1.27  -1.27   2.17   2.18
          2.18   3.17   3.55   3.55   4.24   4.25   4.25   4.96   5.39   5.39
          5.39   6.46   6.46   6.46   6.51   6.51   6.51   8.48   8.48   8.48
          8.56   8.56   8.91   9.51   9.51   9.51  15.24  15.24  15.24  15.67
         15.71  15.71  15.95  15.95  15.96  17.02  17.02  17.02  17.78  17.78
         17.78  18.54  18.54  18.54  19.45  19.45  19.45  20.23  20.23  21.87
         26.94  26.94  26.94  29.53  29.53  30.43  30.43  30.43  40.54  40.54
         40.54  46.47  57.11  57.11  57.11  66.65  66.65  66.65  75.53  75.53
         83.61  83.62  83.62  90.74
   7  1 -15.53 -14.74 -14.74 -14.74 -11.96 -11.96 -11.96 -11.04  -7.79  -7.79
         -7.79  -7.00  -7.00  -7.00  -6.45  -6.45  -3.84  -3.23  -3.23  -3.23
         -1.85  -1.85  -1.71  -1.71  -1.71  -1.07  -1.07  -1.07   1.73   1.73
          1.73   3.00   3.25   3.25   4.29   4.29   4.29   4.86   5.37   5.37
          5.37   6.58   6.58   6.58   6.61   6.61   6.61   8.63   8.63   8.63
          8.87   9.00   9.00  10.07  10.07  10.07  14.85  14.85  14.85  15.34
         15.34  15.58  15.58  15.58  15.66  16.85  16.85  16.85  17.86  17.86
         17.86  18.27  18.27  18.27  19.55  19.55  19.55  20.37  20.37  22.37
         26.33  26.33  26.33  29.71  29.71  30.99  30.99  30.99  37.30  37.30
         37.30  43.17  55.67  55.67  55.67  65.72  65.72  65.73  74.54  74.54
         81.79  81.81  81.81  87.32
   8  1 -15.67 -14.71 -14.71 -14.71 -11.90 -11.90 -11.90 -10.77  -8.00  -8.00
         -8.00  -7.09  -7.09  -7.09  -6.41  -6.41  -3.79  -3.27  -3.27  -3.27
         -1.83  -1.83  -1.45  -1.45  -1.45  -0.84  -0.84  -0.84   1.28   1.28
          1.28   2.79   2.98   2.98   4.35   4.36   4.36   4.82   5.35   5.35
          5.35   6.69   6.69   6.69   6.72   6.72   6.72   8.75   8.78   8.78
          8.78   9.41   9.41  10.65  10.65  10.65  14.47  14.47  14.47  14.99
         14.99  15.19  15.19  15.20  15.71  16.69  16.69  16.69  17.97  17.97
         17.97  17.99  17.99  17.99  19.68  19.68  19.68  20.48  20.48  22.92
         25.70  25.70  25.70  29.90  29.90  31.52  31.52  31.52  34.74  34.74
         34.74  40.45  54.96  54.96  54.96  64.43  64.43  64.44  73.60  73.60
         81.14  81.16  81.16  84.04
   9  1 -15.80 -14.67 -14.67 -14.67 -11.85 -11.85 -11.85 -10.49  -8.21  -8.21
         -8.21  -7.19  -7.19  -7.19  -6.36  -6.36  -3.74  -3.34  -3.34  -3.34
         -1.82  -1.82  -1.15  -1.15  -1.15  -0.59  -0.59  -0.59   0.83   0.83
          0.83   2.54   2.73   2.73   4.43   4.43   4.43   4.82   5.33   5.33
          5.34   6.80   6.80   6.80   6.82   6.82   6.82   8.56   8.93   8.94
          8.94   9.77   9.77  11.22  11.22  11.22  14.08  14.08  14.08  14.69
         14.69  14.81  14.81  14.81  15.79  16.57  16.57  16.57  17.65  17.65
         17.65  18.13  18.13  18.13  19.84  19.84  19.84  20.58  20.58  23.52
         25.06  25.06  25.06  30.10  30.10  31.59  31.59  31.59  33.12  33.12
         33.13  38.29  54.81  54.81  54.81  62.84  62.84  62.85  72.83  72.83
         80.77  80.98  80.99  80.99
  10  1 -15.93 -14.62 -14.62 -14.62 -11.79 -11.79 -11.79 -10.19  -8.40  -8.40
         -8.40  -7.28  -7.28  -7.28  -6.31  -6.31  -3.68  -3.44  -3.44  -3.44
         -1.82  -1.82  -0.81  -0.81  -0.81  -0.32  -0.32  -0.32   0.38   0.38
          0.38   2.26   2.52   2.52   4.52   4.52   4.52   4.86   5.33   5.33
          5.33   6.89   6.89   6.89   6.93   6.93   6.93   8.31   9.12   9.12
          9.12  10.05  10.05  11.77  11.77  11.77  13.69  13.69  13.70  14.43
         14.43  14.43  14.49  14.49  15.90  16.49  16.49  16.49  17.31  17.31
         17.31  18.26  18.26  18.26  20.03  20.03  20.03  20.67  20.67  24.13
         24.43  24.43  24.43  30.31  30.31  30.39  30.39  30.39  33.08  33.08
         33.08  36.65  55.08  55.09  55.09  60.90  60.90  60.91  72.32  72.32
         77.53  80.84  80.86  80.86
  11  1 -16.06 -14.57 -14.57 -14.57 -11.75 -11.75 -11.75  -9.88  -8.57  -8.57
         -8.57  -7.38  -7.38  -7.38  -6.26  -6.26  -3.62  -3.55  -3.55  -3.55
         -1.83  -1.83  -0.45  -0.45  -0.45  -0.06  -0.06  -0.06  -0.03  -0.03
         -0.03   1.97   2.33   2.33   4.62   4.62   4.62   4.93   5.33   5.33
          5.34   6.97   6.97   6.97   7.02   7.02   7.02   8.02   9.33   9.33
          9.33  10.21  10.21  12.29  12.29  12.29  13.30  13.30  13.30  14.04
         14.04  14.04  14.42  14.42  16.04  16.45  16.45  16.45  16.96  16.96
         16.96  18.37  18.37  18.37  20.24  20.24  20.24  20.73  20.73  23.81
         23.81  23.81  24.68  29.03  29.03  29.03  30.53  30.53  33.37  33.37
         33.37  35.50  55.67  55.67  55.67  58.53  58.53  58.53  72.20  72.20
         74.30  80.53  80.55  80.55
[...]
         76.04  86.67  93.79  95.36
  93  1 -16.05 -15.40 -14.27 -13.95 -12.12 -11.75 -10.35  -9.47  -9.34  -9.17
         -8.17  -7.94  -7.74  -7.50  -7.26  -6.37  -3.21  -3.17  -2.76  -2.10
         -2.00  -1.61  -1.59  -0.84  -0.84  -0.64  -0.37  -0.28   0.61   0.67
          1.27   2.04   2.07   2.07   2.72   3.55   4.02   4.04   4.66   5.68
          5.81   5.84   7.69   7.84   8.34   8.46   9.01   9.40   9.49  10.21
         10.58  10.99  11.10  11.33  11.44  11.77  12.10  12.38  13.02  13.30
         14.03  14.18  14.46  14.48  14.66  15.50  15.85  16.14  16.37  17.03
         17.63  17.74  18.60  18.80  19.42  20.60  21.71  22.23  22.64  23.08
         23.25  23.58  24.53  24.93  26.09  26.30  31.55  35.95  37.40  39.35
         41.34  49.80  51.81  53.51  55.02  64.16  64.36  64.57  66.76  70.83
         76.02  86.72  93.85  95.30
  94  1 -15.85 -15.23 -14.35 -14.35 -12.01 -12.01 -10.99 -10.19  -8.76  -8.76
         -7.77  -7.48  -7.48  -7.19  -6.68  -6.67  -3.32  -3.19  -2.96  -2.96
         -2.07  -1.43  -1.43  -1.28  -1.23  -0.46  -0.25   0.47   0.47   0.69
          0.92   0.92   2.91   2.91   3.28   3.41   4.99   5.12   5.15   5.48
          5.50   5.50   6.50   6.50   7.30   8.28   8.93   9.15   9.16   9.19
          9.47   9.47  11.08  11.39  11.39  11.82  13.13  13.36  13.49  13.49
         13.52  14.56  14.99  14.99  16.07  16.07  16.31  16.44  17.18  17.36
         17.36  17.92  17.92  19.11  19.22  19.22  20.72  21.85  21.97  23.59
         24.42  24.42  25.09  26.97  27.52  27.52  31.80  32.65  35.18  35.18
         41.03  48.92  54.33  54.34  57.55  59.39  63.55  65.52  65.53  67.91
         84.13  87.78  87.80  93.99
  95  1 -15.47 -14.93 -14.93 -14.58 -12.02 -11.64 -11.64 -11.00  -8.31  -7.91
         -7.91  -7.21  -6.96  -6.92  -6.92  -6.38  -3.31  -3.19  -2.86  -2.86
         -2.09  -2.09  -1.77  -1.72  -1.31  -0.93  -0.82  -0.82   1.43   1.43
          2.19   2.42   2.58   3.23   3.60   4.05   4.05   4.42   4.42   4.77
          5.22   7.04   7.04   7.17   7.17   7.82   8.10   8.63   8.93   8.94
          8.97   9.29   9.34  10.07  10.52  10.52  13.82  14.07  14.07  15.06
         15.06  15.12  15.45  15.61  15.77  15.98  16.41  16.41  17.58  18.34
         18.34  18.36  18.91  18.91  19.35  19.64  20.43  20.43  21.08  21.48
         26.80  26.91  26.91  28.28  28.58  32.12  32.12  34.19  38.61  39.54
         39.54  45.84  54.67  54.67  58.17  59.00  60.83  73.22  73.22  78.42
         84.18  84.20  84.79 103.75
  96  1 -15.46 -14.94 -14.93 -14.58 -12.02 -11.63 -11.62 -11.01  -8.32  -7.91
         -7.91  -7.21  -6.96  -6.93  -6.92  -6.38  -3.32  -3.18  -2.86  -2.86
         -2.08  -2.08  -1.78  -1.71  -1.31  -0.95  -0.82  -0.82   1.44   1.44
          2.18   2.41   2.60   3.23   3.59   4.04   4.05   4.41   4.43   4.77
          5.22   7.03   7.04   7.16   7.17   7.81   8.11   8.63   8.90   8.93
          8.97   9.32   9.35  10.08  10.52  10.53  13.83  14.06  14.08  15.05
         15.05  15.11  15.45  15.60  15.76  15.98  16.41  16.42  17.57  18.31
         18.33  18.38  18.88  18.91  19.32  19.65  20.44  20.44  21.06  21.52
         26.78  26.90  26.90  28.30  28.57  32.13  32.14  34.12  38.66  39.51
         39.54  45.79  54.69  54.74  58.12  58.92  60.72  73.18  73.21  78.44
         84.15  84.19  84.79 103.86
  97  1 -15.46 -14.93 -14.93 -14.60 -12.01 -11.64 -11.64 -11.01  -8.32  -7.91
         -7.91  -7.21  -6.96  -6.91  -6.91  -6.39  -3.32  -3.18  -2.87  -2.87
         -2.07  -2.07  -1.76  -1.72  -1.31  -0.94  -0.83  -0.83   1.44   1.44
          2.19   2.41   2.59   3.23   3.59   4.05   4.05   4.41   4.41   4.76
          5.20   7.04   7.04   7.17   7.17   7.81   8.11   8.63   8.92   8.92
          8.93   9.32   9.36  10.08  10.53  10.53  13.83  14.08  14.08  15.04
         15.04  15.09  15.46  15.62  15.76  15.96  16.40  16.40  17.57  18.33
         18.33  18.39  18.91  18.91  19.33  19.61  20.43  20.43  21.08  21.50
         26.80  26.90  26.90  28.30  28.54  32.05  32.05  34.19  38.64  39.55
         39.55  45.86  54.65  54.65  58.30  58.90  60.74  73.15  73.15  78.37
         84.10  84.11  84.87 103.99
  98  1 -15.63 -15.02 -15.02 -14.52 -11.61 -11.01 -11.01 -10.21  -9.27  -8.79
         -8.79  -8.21  -7.08  -7.01  -7.01  -6.32  -3.30  -2.69  -2.43  -2.43
         -1.74  -1.74  -1.39  -1.17  -0.11  -0.11  -0.09   0.08   0.43   0.44
          0.71   1.24   1.72   2.15   2.46   2.72   2.72   4.25   4.25   5.35
          5.74   7.64   7.64   8.17   8.73   8.73   9.33   9.66   9.88  10.00
         10.00  10.69  11.08  11.71  11.71  12.02  12.69  12.87  12.87  12.87
         13.46  13.73  13.73  14.39  14.87  15.09  15.09  15.51  17.36  18.14
         18.15  19.19  19.74  19.91  19.91  20.39  21.46  21.46  21.73  22.27
         25.53  25.54  25.94  25.94  27.56  35.89  35.89  40.23  42.46  42.46
         48.65  51.88  51.88  53.21  57.82  59.58  60.49  68.68  68.69  78.51
         79.00  81.01  81.02  97.06
  99  1 -15.63 -15.02 -15.02 -14.52 -11.62 -11.01 -11.01 -10.21  -9.27  -8.79
         -8.79  -8.21  -7.08  -7.01  -7.01  -6.32  -3.30  -2.68  -2.43  -2.43
         -1.74  -1.74  -1.39  -1.17  -0.12  -0.12  -0.09   0.08   0.44   0.44
          0.70   1.24   1.73   2.15   2.46   2.73   2.73   4.25   4.25   5.36
          5.75   7.64   7.64   8.16   8.73   8.73   9.34   9.66   9.87  10.01
         10.01  10.67  11.08  11.71  11.71  12.01  12.72  12.83  12.83  12.87
         13.45  13.76  13.76  14.39  14.89  15.09  15.09  15.52  17.35  18.15
         18.15  19.19  19.76  19.91  19.91  20.40  21.46  21.46  21.73  22.26
         25.54  25.55  25.94  25.94  27.54  35.91  35.91  40.22  42.57  42.57
         48.66  51.84  51.84  53.20  57.84  59.49  60.51  68.71  68.72  78.49
         79.01  81.06  81.06  97.17
 100  1 -15.47 -14.93 -14.93 -14.58 -12.02 -11.64 -11.64 -11.00  -8.31  -7.91
         -7.91  -7.21  -6.96  -6.92  -6.92  -6.38  -3.31  -3.19  -2.86  -2.86
         -2.09  -2.09  -1.77  -1.72  -1.31  -0.93  -0.82  -0.82   1.43   1.43
          2.19   2.42   2.58   3.23   3.60   4.05   4.05   4.42   4.42   4.77
          5.22   7.04   7.04   7.17   7.17   7.82   8.10   8.63   8.93   8.94
          8.97   9.29   9.34  10.07  10.52  10.52  13.82  14.07  14.07  15.06
         15.06  15.12  15.45  15.61  15.77  15.98  16.41  16.41  17.58  18.34
         18.34  18.36  18.91  18.91  19.35  19.64  20.43  20.43  21.08  21.48
         26.80  26.91  26.91  28.28  28.58  32.12  32.12  34.19  38.61  39.54
         39.54  45.84  54.67  54.67  58.17  59.00  60.83  73.22  73.22  78.42
         84.18  84.20  84.79 103.75
 101  1 -15.16 -14.81 -14.81 -14.81 -12.10 -12.10 -12.10 -11.71  -7.15  -7.15
         -7.15  -6.76  -6.76  -6.76  -6.54  -6.54  -3.94  -3.47  -3.47  -3.47
         -2.02  -2.02  -2.02  -1.90  -1.90  -1.59  -1.59  -1.59   2.92   2.93
          2.93   3.38   4.15   4.15   4.28   4.28   4.28   5.28   5.46   5.46
          5.46   6.24   6.24   6.24   6.32   6.32   6.32   7.73   7.73   8.01
          8.01   8.01   8.71   8.71   8.71   8.79  15.84  15.93  15.93  15.93
         16.41  16.41  16.60  16.60  16.60  17.23  17.23  17.23  18.00  18.00
         18.00  18.96  18.96  18.96  19.36  19.36  19.36  19.93  19.93  21.03
         27.92  27.92  27.92  29.24  29.24  29.54  29.54  29.55  48.79  48.79
         48.79  53.90  62.35  62.35  62.35  67.20  67.20  67.20  77.19  77.19
         92.82  92.82  92.82  98.17
 102  1 -15.15 -14.82 -14.81 -14.81 -12.10 -12.10 -12.09 -11.72  -7.16  -7.16
         -7.16  -6.75  -6.75  -6.75  -6.54  -6.53  -3.94  -3.47  -3.47  -3.46
         -2.01  -2.00  -2.00  -1.91  -1.88  -1.61  -1.61  -1.61   2.93   2.94
          2.94   3.38   4.14   4.15   4.29   4.29   4.29   5.26   5.45   5.45
          5.45   6.22   6.22   6.24   6.31   6.32   6.32   7.73   7.73   8.01
          8.01   8.02   8.69   8.72   8.72   8.83  15.86  15.91  15.93  15.93
         16.39  16.40  16.61  16.61  16.61  17.22  17.22  17.23  17.96  17.99
         17.99  18.94  18.94  18.95  19.38  19.39  19.39  19.91  19.93  21.08
         27.87  27.87  27.90  29.17  29.25  29.57  29.57  29.58  48.79  48.84
         48.84  53.91  62.31  62.32  62.40  67.16  67.24  67.24  77.18  77.33
         92.50  92.67  92.67  98.07
 103  1 -15.46 -14.94 -14.93 -14.58 -12.02 -11.63 -11.62 -11.01  -8.32  -7.91
         -7.91  -7.21  -6.96  -6.93  -6.92  -6.38  -3.32  -3.18  -2.86  -2.86
         -2.08  -2.08  -1.78  -1.71  -1.31  -0.95  -0.82  -0.82   1.44   1.44
          2.18   2.41   2.60   3.23   3.59   4.04   4.05   4.41   4.43   4.77
          5.22   7.03   7.04   7.16   7.17   7.81   8.11   8.63   8.90   8.93
          8.97   9.32   9.35  10.08  10.52  10.53  13.83  14.06  14.08  15.05
         15.05  15.11  15.45  15.60  15.76  15.98  16.41  16.42  17.57  18.31
         18.33  18.38  18.88  18.91  19.32  19.65  20.44  20.44  21.06  21.52
         26.78  26.90  26.90  28.30  28.57  32.13  32.14  34.12  38.66  39.51
         39.54  45.79  54.69  54.74  58.12  58.92  60.72  73.18  73.21  78.44
         84.15  84.19  84.79 103.86
 104  1 -15.63 -15.03 -15.03 -14.51 -11.63 -11.00 -11.00 -10.22  -9.27  -8.79
         -8.79  -8.21  -7.08  -7.01  -7.01  -6.31  -3.30  -2.69  -2.43  -2.43
         -1.73  -1.73  -1.40  -1.17  -0.11  -0.10  -0.10   0.08   0.44   0.44
          0.70   1.24   1.72   2.15   2.47   2.73   2.74   4.23   4.24   5.36
          5.75   7.62   7.63   8.18   8.72   8.72   9.35   9.68   9.90   9.99
         10.00  10.68  11.08  11.69  11.71  12.01  12.70  12.86  12.86  12.86
         13.45  13.75  13.75  14.37  14.87  15.11  15.11  15.52  17.37  18.11
         18.13  19.17  19.78  19.90  19.91  20.37  21.48  21.49  21.71  22.29
         25.54  25.56  25.93  25.93  27.56  35.87  35.89  40.27  42.54  42.56
         48.53  51.90  51.96  53.13  57.73  59.35  60.52  68.72  68.74  78.48
         79.05  81.10  81.16  97.16
 105  1 -15.63 -15.03 -15.03 -14.51 -11.63 -11.00 -11.00 -10.22  -9.27  -8.79
         -8.79  -8.21  -7.08  -7.01  -7.01  -6.31  -3.30  -2.69  -2.43  -2.43
         -1.73  -1.73  -1.40  -1.17  -0.11  -0.10  -0.10   0.08   0.44   0.44
          0.70   1.24   1.72   2.15   2.47   2.73   2.74   4.23   4.24   5.36
          5.75   7.62   7.63   8.18   8.72   8.72   9.35   9.68   9.90   9.99
         10.00  10.68  11.08  11.69  11.71  12.01  12.70  12.86  12.86  12.86
         13.45  13.75  13.75  14.37  14.87  15.11  15.11  15.52  17.37  18.11
         18.13  19.17  19.78  19.90  19.91  20.37  21.48  21.49  21.71  22.29
         25.54  25.56  25.93  25.93  27.56  35.87  35.89  40.27  42.54  42.56
         48.53  51.90  51.96  53.13  57.73  59.35  60.52  68.72  68.74  78.48
         79.05  81.10  81.16  97.16
 106  1 -15.46 -14.94 -14.93 -14.58 -12.02 -11.63 -11.62 -11.01  -8.32  -7.91
         -7.91  -7.21  -6.96  -6.93  -6.92  -6.38  -3.32  -3.18  -2.86  -2.86
         -2.08  -2.08  -1.78  -1.71  -1.31  -0.95  -0.82  -0.82   1.44   1.44
          2.18   2.41   2.60   3.23   3.59   4.04   4.05   4.41   4.43   4.77
          5.22   7.03   7.04   7.16   7.17   7.81   8.11   8.63   8.90   8.93
          8.97   9.32   9.35  10.08  10.52  10.53  13.83  14.06  14.08  15.05
         15.05  15.11  15.45  15.60  15.76  15.98  16.41  16.42  17.57  18.31
         18.33  18.38  18.88  18.91  19.32  19.65  20.44  20.44  21.06  21.52
         26.78  26.90  26.90  28.30  28.57  32.13  32.14  34.12  38.66  39.51
         39.54  45.79  54.69  54.74  58.12  58.92  60.72  73.18  73.21  78.44
         84.15  84.19  84.79 103.86
 107  1 -15.15 -14.82 -14.81 -14.81 -12.10 -12.10 -12.09 -11.72  -7.16  -7.16
         -7.16  -6.75  -6.75  -6.75  -6.54  -6.53  -3.94  -3.47  -3.47  -3.46
         -2.01  -2.00  -2.00  -1.91  -1.88  -1.61  -1.61  -1.61   2.93   2.94
          2.94   3.38   4.14   4.15   4.29   4.29   4.29   5.26   5.45   5.45
          5.45   6.22   6.22   6.24   6.31   6.32   6.32   7.73   7.73   8.01
          8.01   8.02   8.69   8.72   8.72   8.83  15.86  15.91  15.93  15.93
         16.39  16.40  16.61  16.61  16.61  17.22  17.22  17.23  17.96  17.99
         17.99  18.94  18.94  18.95  19.38  19.39  19.39  19.91  19.93  21.08
         27.87  27.87  27.90  29.17  29.25  29.57  29.57  29.58  48.79  48.84
         48.84  53.91  62.31  62.32  62.40  67.16  67.24  67.24  77.18  77.33
         92.50  92.67  92.67  98.07
 108  1 -15.15 -14.82 -14.81 -14.81 -12.10 -12.10 -12.09 -11.72  -7.16  -7.16
         -7.16  -6.75  -6.75  -6.75  -6.54  -6.53  -3.94  -3.47  -3.47  -3.46
         -2.01  -2.00  -2.00  -1.91  -1.88  -1.61  -1.61  -1.61   2.93   2.94
          2.94   3.38   4.14   4.15   4.29   4.29   4.29   5.26   5.45   5.45
          5.45   6.22   6.22   6.24   6.31   6.32   6.32   7.73   7.73   8.01
          8.01   8.02   8.69   8.72   8.72   8.83  15.86  15.91  15.93  15.93
         16.39  16.40  16.61  16.61  16.61  17.22  17.22  17.23  17.96  17.99
         17.99  18.94  18.94  18.95  19.38  19.39  19.39  19.91  19.93  21.08
         27.87  27.87  27.90  29.17  29.25  29.57  29.57  29.58  48.79  48.84
         48.84  53.91  62.31  62.32  62.40  67.16  67.24  67.24  77.18  77.33
         92.50  92.67  92.67  98.07
siesta: Fermi energy =      -4.982282 eV

siesta: Program's energy decomposition (eV):
siesta: Ebs     =      -331.395601
siesta: Eions   =      1510.441798
siesta: Ena     =       471.444692
siesta: Ekin    =       319.021768
siesta: Enl     =       127.028153
siesta: DEna    =         6.686014
siesta: DUscf   =         1.516425
siesta: DUext   =         0.000000
siesta: Exc     =      -445.929362
siesta: eta*DQ  =         0.000000
siesta: Emadel  =         0.000000
siesta: Emeta   =         0.000000
siesta: Emolmec =         0.000000
siesta: Ekinion =         0.000000
siesta: Eharris =     -1030.674355
siesta: Etot    =     -1030.674109
siesta: FreeEng =     -1030.674109

siesta: Final energy (eV):
siesta:  Band Struct. =    -331.395601
siesta:       Kinetic =     319.021768
siesta:       Hartree =      60.014067
siesta:    Ext. field =       0.000000
siesta:   Exch.-corr. =    -445.929362
siesta:  Ion-electron =    -421.754958
siesta:       Ion-ion =    -542.025624
siesta:       Ekinion =       0.000000
siesta:         Total =   -1030.674109

siesta: Stress tensor (static) (eV/Ang**3):
siesta:     0.001142    0.000678    0.000678
siesta:     0.000678    0.001142    0.000678
siesta:     0.000678    0.000678    0.001142

siesta: Constrained stress tensor (static) (eV/Ang**3):
siesta:     0.001142    0.000678    0.000678
siesta:     0.000678    0.001142    0.000678
siesta:     0.000678    0.000678    0.001142

siesta: Cell volume =        168.476839 Ang**3

siesta: Pressure (static):
siesta:                Solid            Molecule  Units
siesta:          -0.00001244         -0.00000225  Ry/Bohr**3
siesta:          -0.00114233         -0.00020698  eV/Ang**3
siesta:          -1.83022727         -0.33161690  kBar
(Free)E+ p_basis*V_orbitals  =       -1021.736379
(Free)Eharris+ p_basis*V_orbitals  =       -1021.737504

* Maximum dynamic memory allocated : Node    0 =    82 MB

* Maximum memory occured during init_pulay_arrrays            

timer: CPU execution times:
timer:  Routine       Calls   Time/call    Tot.time        %
timer:  siesta            1     865.238     865.238   100.00
timer:  Setup             1       0.128       0.128     0.01
timer:  bands             3       0.519       1.556     0.18
timer:  writewave         3       0.008       0.024     0.00
timer:  KSV_init          1       0.000       0.000     0.00
timer:  IterMD           11      78.495     863.446    99.79
timer:  hsparse          11       0.147       1.620     0.19
timer:  overlap          11       0.117       1.284     0.15
timer:  IterSCF          59      12.251     722.789    83.54
timer:  kinefsm          22       0.115       2.524     0.29
timer:  nlefsm           22       3.056      67.228     7.77
timer:  DHSCF            70       6.834     478.386    55.29
timer:  DHSCF1           11       0.044       0.488     0.06
timer:  DHSCF2           11       1.892      20.813     2.41
timer:  REORD           442       0.000       0.048     0.01
timer:  POISON           81       0.005       0.396     0.05
timer:  DHSCF3           70       6.034     422.346    48.81
timer:  rhoofd           70       2.741     191.884    22.18
timer:  cellXC           70       0.122       8.545     0.99
timer:  vmat             70       3.164     221.446    25.59
timer:  MolMec           22       0.000       0.000     0.00
timer:  diagon           59       5.239     309.091    35.72
timer:  c-eigval       6473       0.015      94.470    10.92
timer:  c-buildHS      6473       0.010      64.537     7.46
timer:  cdiag         12846       0.007      90.449    10.45
timer:  cdiag1        12846       0.001       6.552     0.76
timer:  cdiag2        12846       0.002      23.744     2.74
timer:  cdiag3        12846       0.005      58.089     6.71
timer:  cdiag4        12846       0.000       1.716     0.20
timer:  c-eigvec       6373       0.019     124.185    14.35
timer:  c-buildD       6372       0.014      91.453    10.57
timer:  DHSCF4           11       3.156      34.718     4.01
timer:  dfscf            11       2.962      32.578     3.77
timer:  overfsm          11       0.109       1.196     0.14
timer:  optical           1       0.000       0.000     0.00
  

elaps: ELAPSED times:
elaps:  Routine       Calls   Time/call    Tot.time        %
elaps:  siesta            1     869.157     869.157   100.00
elaps:  Setup             1       0.131       0.131     0.02
elaps:  bands             3       0.521       1.564     0.18
elaps:  writewave         3       0.007       0.020     0.00
elaps:  KSV_init          1       0.000       0.000     0.00
elaps:  IterMD           11      78.850     867.353    99.79
elaps:  hsparse          11       0.148       1.623     0.19
elaps:  overlap          11       0.117       1.285     0.15
elaps:  IterSCF          59      12.308     726.168    83.55
elaps:  kinefsm          22       0.115       2.532     0.29
elaps:  nlefsm           22       3.069      67.518     7.77
elaps:  DHSCF            70       6.863     480.379    55.27
elaps:  DHSCF1           11       0.044       0.489     0.06
elaps:  DHSCF2           11       1.899      20.885     2.40
elaps:  REORD           442       0.000       0.036     0.00
elaps:  POISON           81       0.005       0.392     0.05
elaps:  DHSCF3           70       6.059     424.138    48.80
elaps:  rhoofd           70       2.752     192.655    22.17
elaps:  cellXC           70       0.122       8.570     0.99
elaps:  vmat             70       3.178     222.458    25.59
elaps:  MolMec           22       0.000       0.000     0.00
elaps:  diagon           59       5.265     310.644    35.74
elaps:  c-eigval       6473       0.015      94.918    10.92
elaps:  c-buildHS      6473       0.010      64.851     7.46
elaps:  cdiag         12846       0.007      91.046    10.48
elaps:  cdiag1        12846       0.001       6.736     0.78
elaps:  cdiag2        12846       0.002      23.948     2.76
elaps:  cdiag3        12846       0.005      58.438     6.72
elaps:  cdiag4        12846       0.000       1.602     0.18
elaps:  c-eigvec       6373       0.020     124.868    14.37
elaps:  c-buildD       6372       0.014      91.909    10.57
elaps:  DHSCF4           11       3.168      34.843     4.01
elaps:  dfscf            11       2.972      32.691     3.76
elaps:  overfsm          11       0.109       1.203     0.14
elaps:  optical           1       0.000       0.000     0.00
  
>> End of run:   9-MAY-2013  21:01:34

=====================================================================================
=   BAD TERMINATION OF ONE OF YOUR APPLICATION PROCESSES
=   EXIT CODE: 134
=   CLEANING UP REMAINING PROCESSES
=   YOU CAN IGNORE THE BELOW CLEANUP MESSAGES
=====================================================================================
APPLICATION TERMINATED WITH THE EXIT STRING: Aborted (signal 6)
