Siesta Version:                                        siesta-3.2
Architecture  : x86_64-unknown-linux-gnu--unknown
Compiler flags: f95 -g -O2
SERIAL version

* Running in serial mode
Siesta Version:                                        siesta-3.2
Architecture  : x86_64-unknown-linux-gnu--unknown
Compiler flags: f95 -g -O2
SERIAL version

* Running in serial mode
>> Start of run:   9-MAY-2013  21:01:34
>> Start of run:   9-MAY-2013  21:01:34

                           ***********************       
                           *  WELCOME TO SIESTA  *       
                           ***********************       


reinit: Reading from standard input
                           ***********************       
************************** Dump of input data file ****************************
# FDF for silicon
SystemName             silicon          # Descriptive name of the system
SystemLabel            si          # Short name for naming files
NumberOfAtoms 8
NumberOfSpecies 1
%block ChemicalSpeciesLabel
1 14 Si
%endblock ChemicalSpeciesLabel
LatticeConstant  5.43 Ang
##Basis set Definition##
PAO.BasisType          split        # Type of PAO basis set
PAO.EnergyShift        50 meV
PAO.BasisSize          DZP          # (DZP) Double-z + polarization
#%block LatticeVectors
#0.500 0.500 0.000
#0.500 0.000 0.500
#0.000 0.500 0.500
#%endblock LatticeVectors
AtomicCoordinatesFormat NotScaledCartesianAng
%block AtomicCoordinatesAndAtomicSpecies
	0.00000000	0.00000000	0.00000000  1 Si  1
	1.36000000	1.36000000	1.36000000  1 Si  2
	2.72000000	2.72000000	0.00000000  1 Si  3
	4.08000000	4.08000000	1.36000000  1 Si  4
	2.72000000	0.00000000	2.72000000  1 Si  5
	4.08000000	1.36000000	4.08000000  1 Si  6
	0.00000000	2.72000000	2.72000000  1 Si  7
	1.36000000	4.08000000	4.08000000  1 Si  8
%endblock AtomicCoordinatesAndAtomicSpecies
MeshCutoff 100.0 Ry # 100, 120, 180, 260
kgrid_cutoff 30.0 Bohr # 30, 35, 40, 45
DM.Mixingweight  0.3
DM.NumberPulay    3
DM.Tolerance      1.d-3
DM.UseSaveDM      true
ElectronicTemperature 25 meV
SolutionMethod    diagon
XC.functional      GGA	    # Generalized Gradient Approximation
XC.authors        PBE          # Perdew-Burke-Ernzerhof
SpinPolarized     false
MD.TypeOfRun           CG           # Type of dynamics:
MD.VariableCell        true
MD.NumCGsteps          100          # Number of CG steps for coordinate optimization
MD.MaxCGDispl          0.2 Bohr     # Maximum atomic displacement
                                    #   in one CG step (Bohr)
MD.MaxForceTol         0.04 eV/Ang  # Tolerance in the maximum
                                    #   atomic force (Ry/Bohr)
				
##Output Specification##
WriteMDhistory         true         # Trajectory information
WriteCoorStep          true
WriteCoorXmol          true
WriteMDXmol            true
WriteEigenvalues true
WriteKbands      true
WriteBands       true
WriteWaveFunctions true
WriteMullikenPoP   1
%block BandLines
1	1.000	1.000 1.000 L
25	0.000	0.000	0.000 \Gamma
30	2.000	0.000	0.000 X
10	2.000	0.500	0.500 U
35	0.000	0.000	0.000 \Gamma
%endblock BandLines
%block WaveFuncKPoints
0.0 0.0 0.0 from 1 to 50 # > 16 = 4/2*8 (Valenzelektronen/2, Atomzahl ...)
%endblock WaveFuncKpoints
************************** End of input data file *****************************

reinit: -----------------------------------------------------------------------
reinit: System Name: silicon
reinit: -----------------------------------------------------------------------
reinit: System Label: si                                                          
reinit: -----------------------------------------------------------------------

initatom: Reading input for the pseudopotentials and atomic orbitals ----------
                           *  WELCOME TO SIESTA  *       
                           ***********************       

reinit: Reading from standard input
************************** Dump of input data file ****************************
************************** End of input data file *****************************

reinit: -----------------------------------------------------------------------
reinit: System Name: 
reinit: -----------------------------------------------------------------------
reinit: System Label: siesta                                                      
reinit: -----------------------------------------------------------------------

initatom: Reading input for the pseudopotentials and atomic orbitals ----------
No species found!!!
ERROR STOP from Node:    0
 Species number:            1  Label: Si Atomic number:          14
Ground state valence configuration:   3s02  3p02
Reading pseudopotential information in formatted form from Si.psf

Valence configuration for pseudopotential generation:
3s( 2.00) rc: 1.75
3p( 2.00) rc: 1.94
3d( 0.00) rc: 2.09
4f( 0.00) rc: 2.09
For Si, standard SIESTA heuristics set lmxkb to 3
 (one more than the basis l, including polarization orbitals).
Use PS.lmax or PS.KBprojectors blocks to override.

<basis_specs>
===============================================================================
Si                   Z=  14    Mass=  28.090        Charge= 0.17977+309
Lmxo=1 Lmxkb= 3    BasisType=split      Semic=F
L=0  Nsemic=0  Cnfigmx=3
          n=1  nzeta=2  polorb=0
            splnorm:   0.15000    
               vcte:    0.0000    
               rinn:    0.0000    
                rcs:    0.0000      0.0000    
            lambdas:    1.0000      1.0000    
L=1  Nsemic=0  Cnfigmx=3
          n=1  nzeta=2  polorb=1
            splnorm:   0.15000    
               vcte:    0.0000    
               rinn:    0.0000    
                rcs:    0.0000      0.0000    
            lambdas:    1.0000      1.0000    
-------------------------------------------------------------------------------
L=0  Nkbl=1  erefs: 0.17977+309
L=1  Nkbl=1  erefs: 0.17977+309
L=2  Nkbl=1  erefs: 0.17977+309
L=3  Nkbl=1  erefs: 0.17977+309
===============================================================================
</basis_specs>

atom: Called for Si                    (Z =  14)

read_vps: Pseudopotential generation method:
read_vps: ATM3      Troullier-Martins                       
Total valence charge:    4.00000

read_vps: Pseudopotential includes a core correction:
read_vps: Pseudo-core for xc-correction

xc_check: Exchange-correlation functional:
xc_check: GGA Perdew, Burke & Ernzerhof 1996
V l=0 = -2*Zval/r beyond r=  2.0104
V l=1 = -2*Zval/r beyond r=  2.0873
V l=2 = -2*Zval/r beyond r=  2.1670
V l=3 = -2*Zval/r beyond r=  2.1670
All V_l potentials equal beyond r=  2.0613
This should be close to max(r_c) in ps generation
All pots = -2*Zval/r beyond r=  2.1670

VLOCAL1: 99.0% of the norm of Vloc inside     10.216 Ry
VLOCAL1: 99.9% of the norm of Vloc inside     23.282 Ry
atom: Maximum radius for 4*pi*r*r*local-pseudopot. charge    2.45560
atom: Maximum radius for r*vlocal+2*Zval:    2.14012
GHOST: No ghost state for L =  0
GHOST: No ghost state for L =  1
GHOST: No ghost state for L =  2
GHOST: No ghost state for L =  3

KBgen: Kleinman-Bylander projectors: 
   l= 0   rc=  2.306811   el= -0.791441   Ekb=  5.289775   kbcos=  0.291595
   l= 1   rc=  2.394965   el= -0.300632   Ekb=  1.944256   kbcos=  0.287657
   l= 2   rc=  2.549439   el=  0.001958   Ekb= -1.788485   kbcos= -0.056492
   l= 3   rc=  2.782581   el=  0.003046   Ekb= -0.472620   kbcos= -0.006203

KBgen: Total number of  Kleinman-Bylander projectors:   16
atom: -------------------------------------------------------------------------

atom: SANKEY-TYPE ORBITALS:
atom: Selected multiple-zeta basis: split     

SPLIT: Orbitals with angular momentum L= 0

SPLIT: Basis orbitals for state 3s

SPLIT: PAO cut-off radius determined from an
SPLIT: energy shift=  0.003675 Ry

   izeta = 1
                 lambda =    1.000000
                     rc =    6.116033
                 energy =   -0.788343
                kinetic =    0.528041
    potential(screened) =   -1.316383
       potential(ionic) =   -3.704743

   izeta = 2
                 rmatch =    4.530823
              splitnorm =    0.150000
                 energy =   -0.692892
                kinetic =    0.848665
    potential(screened) =   -1.541557
       potential(ionic) =   -4.044985

SPLIT: Orbitals with angular momentum L= 1

SPLIT: Basis orbitals for state 3p

SPLIT: PAO cut-off radius determined from an
SPLIT: energy shift=  0.003675 Ry

   izeta = 1
                 lambda =    1.000000
                     rc =    7.853192
                 energy =   -0.297152
                kinetic =    0.797948
    potential(screened) =   -1.095101
       potential(ionic) =   -3.275753

   izeta = 2
                 rmatch =    5.330310
              splitnorm =    0.150000
                 energy =   -0.228170
                kinetic =    1.148579
    potential(screened) =   -1.376749
       potential(ionic) =   -3.739005

POLgen: Perturbative polarization orbital with L=  2

POLgen: Polarization orbital for state 3p

   izeta = 1
                     rc =    7.853192
                 energy =    0.340222
                kinetic =    1.096718
    potential(screened) =   -0.756496
       potential(ionic) =   -2.716423
atom: Total number of Sankey-type orbitals: 13

atm_pop: Valence configuration (for local Pseudopot. screening):
 3s( 2.00)                                                            
 3p( 2.00)                                                            
Vna: chval, zval:    4.00000   4.00000

Vna:  Cut-off radius for the neutral-atom potential:   7.853192
comcore: Pseudo-core radius Rcore=  2.999314

atom: _________________________________________________________________________

prinput: Basis input ----------------------------------------------------------

PAO.BasisType split     

%block ChemicalSpeciesLabel
    1   14 Si                      # Species index, atomic number, species label
%endblock ChemicalSpeciesLabel

%block PAO.Basis                 # Define Basis set
Si                    2                    # Species label, number of l-shells
 n=3   0   2                         # n, l, Nzeta 
   6.116      4.531   
   1.000      1.000   
 n=3   1   2 P   1                   # n, l, Nzeta, Polarization, NzetaPol
   7.853      5.330   
   1.000      1.000   
%endblock PAO.Basis

prinput: ----------------------------------------------------------------------

coor:   Atomic-coordinates input format  =     Cartesian coordinates
coor:                                          (in Angstroms)

siesta: Atomic coordinates (Bohr) and species
siesta:      0.00000   0.00000   0.00000  1        1
siesta:      2.57003   2.57003   2.57003  1        2
siesta:      5.14006   5.14006   0.00000  1        3
siesta:      7.71009   7.71009   2.57003  1        4
siesta:      5.14006   0.00000   5.14006  1        5
siesta:      7.71009   2.57003   7.71009  1        6
siesta:      0.00000   5.14006   5.14006  1        7
siesta:      2.57003   7.71009   7.71009  1        8

siesta: System type = bulk      

initatomlists: Number of atoms, orbitals, and projectors:      8   104   128

siesta: ******************** Simulation parameters ****************************
siesta:
siesta: The following are some of the parameters of the simulation.
siesta: A complete list of the parameters used, including default values,
siesta: can be found in file out.fdf
siesta:
redata: Non-Collinear-spin run           =     F
redata: SpinPolarized (Up/Down) run      =     F
redata: Number of spin components        =     1
redata: Long output                      =     F
redata: Number of Atomic Species         =        1
redata: Charge density info will appear in .RHO file
redata: Write Mulliken Pop.              =     Atomic and Orbital charges
redata: Mesh Cutoff                      =   100.0000  Ry
redata: Net charge of the system         =     0.0000 |e|
redata: Max. number of SCF Iter          =       50
redata: Performing Pulay mixing using    =     3 iterations
redata: Mix DM in first SCF step ?       =     F
redata: Write Pulay info on disk?        =     F
redata: Discard 1st Pulay DM after  kick =     F
redata: New DM Mixing Weight             =     0.3000
redata: New DM Occupancy tolerance       = 0.000000000001
redata: No kicks to SCF
redata: DM Mixing Weight for Kicks       =     0.5000
redata: DM Tolerance for SCF             =     0.001000
redata: Require Energy convergence for SCF =     F
redata: DM Energy tolerance for SCF      =     0.000100 eV
redata: Require Harris convergence for SCF =     F
redata: DM Harris energy tolerance for SCF =     0.000100 eV
redata: Using Saved Data (generic)   =     F
redata: Use continuation files for DM    =     T
redata: Neglect nonoverlap interactions  =     F
redata: Method of Calculation            =     Diagonalization
redata: Divide and Conquer               =     T
redata: Electronic Temperature           =     0.0018  Ry
redata: Fix the spin of the system       =     F
redata: Dynamics option                  =     CG coord. optimization
redata: Variable cell                    =     T
redata: Use continuation files for CG    =     F
redata: Max atomic displ per move        =     0.2000  Bohr
redata: Maximum number of CG moves       =      100
redata: Force tolerance                  =     0.0016  Ry/Bohr
redata: Stress tolerance                 =     1.0000  GPa
redata: ***********************************************************************
Total number of electrons:    32.000000
Total ionic charge:    32.000000
 Kpoints in:          108 . Kpoints trimmed:          108

siesta: k-grid: Number of k-points =   108
siesta: k-grid: Cutoff (effective) =    16.290 Ang
siesta: k-grid: Supercell and displacements
siesta: k-grid:    0   6   0      0.500
siesta: k-grid:    0   0   6      0.500
siesta: k-grid:    6   0   0      0.500
Naive supercell factors:     5    5    5

superc: Internal auxiliary supercell:     5 x     5 x     5  =     125
superc: Number of atoms, orbitals, and projectors:   1000  13000  16000

* Maximum dynamic memory allocated =     1 MB

siesta:                 ==============================
                            Begin CG move =      0
                        ==============================

outcoor: Atomic coordinates (Ang):                          
    0.00000000    0.00000000    0.00000000   1       1  Si
    1.36000000    1.36000000    1.36000000   1       2  Si
    2.72000000    2.72000000    0.00000000   1       3  Si
    4.08000000    4.08000000    1.36000000   1       4  Si
    2.72000000    0.00000000    2.72000000   1       5  Si
    4.08000000    1.36000000    4.08000000   1       6  Si
    0.00000000    2.72000000    2.72000000   1       7  Si
    1.36000000    4.08000000    4.08000000   1       8  Si

superc: Internal auxiliary supercell:     5 x     5 x     5  =     125
superc: Number of atoms, orbitals, and projectors:   1000  13000  16000

outcell: Unit cell vectors (Ang):
        5.430000    0.000000    0.000000
        0.000000    5.430000    0.000000
        0.000000    0.000000    5.430000

outcell: Cell vector modules (Ang)   :    5.430000    5.430000    5.430000
outcell: Cell angles (23,13,12) (deg):     90.0000     90.0000     90.0000
outcell: Cell volume (Ang**3)        :    160.1030
New_DM. Step:     1
Initializing Density Matrix...

InitMesh: MESH =    36 x    36 x    36 =       46656
InitMesh: Mesh cutoff (required, used) =   100.000   121.481 Ry

* Maximum dynamic memory allocated =    76 MB

stepf: Fermi-Dirac step function

siesta: Program's energy decomposition (eV):
siesta: Ebs     =      -347.983067
siesta: Eions   =      1510.441798
siesta: Ena     =       468.364270
siesta: Ekin    =       288.667622
siesta: Enl     =       154.333152
siesta: DEna    =         0.000001
siesta: DUscf   =         0.000000
siesta: DUext   =         0.000000
siesta: Exc     =      -445.561420
siesta: eta*DQ  =         0.000000
siesta: Emadel  =         0.000000
siesta: Emeta   =         0.000000
siesta: Emolmec =         0.000000
siesta: Ekinion =         0.000000
siesta: Eharris =     -1030.823497
siesta: Etot    =     -1044.638173
siesta: FreeEng =     -1044.638173

siesta: iscf   Eharris(eV)      E_KS(eV)   FreeEng(eV)   dDmax  Ef(eV)
siesta:    1    -1030.8235    -1044.6382    -1044.6382  1.7319 -5.3848
timer: Routine,Calls,Time,% = IterSCF        1      20.365  97.14
elaps: Routine,Calls,Wall,% = IterSCF        1      20.442  97.13
siesta:    2    -1030.5744    -1030.5150    -1030.5150  0.0865 -5.0430
siesta:    3    -1030.5671    -1031.0358    -1031.0358  0.0418 -5.0734
siesta:    4    -1030.5649    -1030.5766    -1030.5766  0.0047 -5.0919
siesta:    5    -1030.5649    -1030.5761    -1030.5761  0.0034 -5.0914
siesta:    6    -1030.5649    -1030.5607    -1030.5607  0.0006 -5.0911

siesta: E_KS(eV) =            -1030.5619

siesta: E_KS - E_eggbox =     -1030.5619

siesta: Atomic forces (eV/Ang):
----------------------------------------
   Tot    0.001315    0.001315    0.001284
----------------------------------------
   Max    0.082811
   Res    0.058387    sqrt( Sum f_i^2 / 3N )
----------------------------------------
   Max    0.082811    constrained

Stress-tensor-Voigt (kbar):      -45.19      -45.19      -45.19        1.16        1.16        1.16
(Free)E + p*V (eV/cell)    -1026.0462
Target enthalpy (eV/cell)    -1030.5619

siesta: Stress tensor (static) (eV/Ang**3):
        -0.028205    0.000725    0.000726
         0.000725   -0.028205    0.000726
         0.000726    0.000726   -0.028205

siesta: Pressure (static):         45.18953404  kBar

siesta: Stress tensor (total) (eV/Ang**3):
        -0.028205    0.000725    0.000726
         0.000725   -0.028205    0.000726
         0.000726    0.000726   -0.028205

siesta: Pressure (total):         45.18953404  kBar

mulliken: Mulliken Atomic and Orbital Populations:

Species: Si                  
Atom  Qatom  Qorb
               3s      3s      3py     3pz     3px     3py     3pz     3px     
               3Pdxy   3Pdyz   3Pdz2   3Pdxz   3Pdx2-y2
   1  4.002   0.599   0.591   0.204   0.204   0.204   0.556   0.556   0.556
              0.126   0.126   0.076   0.126   0.076
   2  3.999   0.612   0.585   0.208   0.208   0.208   0.552   0.552   0.552
              0.125   0.125   0.075   0.125   0.075
   3  3.999   0.607   0.587   0.205   0.208   0.205   0.554   0.552   0.554
              0.126   0.125   0.075   0.125   0.076
   4  4.000   0.603   0.589   0.206   0.202   0.206   0.554   0.556   0.554
              0.126   0.126   0.076   0.126   0.076
   5  3.999   0.607   0.587   0.208   0.205   0.205   0.552   0.554   0.554
              0.125   0.125   0.076   0.126   0.075
   6  4.000   0.603   0.589   0.202   0.206   0.206   0.556   0.554   0.554
              0.126   0.126   0.076   0.126   0.076
   7  3.999   0.607   0.587   0.205   0.205   0.208   0.554   0.554   0.552
              0.125   0.126   0.076   0.125   0.075
   8  4.000   0.603   0.589   0.206   0.206   0.202   0.554   0.554   0.556
              0.126   0.126   0.076   0.126   0.076

mulliken: Qtot =       32.000

cgvc: No target stress found, assuming hydrostatic MD.TargetPressure.

cgvc: Target stress (kBar)
cgvc:        -0.000       0.000       0.000
cgvc:         0.000      -0.000       0.000
cgvc:         0.000       0.000      -0.000

* Maximum dynamic memory allocated =    77 MB

siesta:                 ==============================
                            Begin CG move =      1
                        ==============================

outcoor: Atomic coordinates (Ang):                          
    0.00553823    0.00553811    0.00553726   1       1  Si
    1.37611451    1.37611433    1.37611387   1       2  Si
    2.75131336    2.75131331    0.00372848   1       3  Si
    4.12177596    4.12177610    1.37456495   1       4  Si
    2.75131325    0.00372985    2.75131304   1       5  Si
    4.12177591    1.37456522    4.12177657   1       6  Si
    0.00372983    2.75131321    2.75131293   1       7  Si
    1.37456534    4.12177602    4.12177666   1       8  Si
 Kpoints in:          108 . Kpoints trimmed:          108

siesta: k-grid: Number of k-points =   108
siesta: k-grid: Cutoff (effective) =    16.486 Ang
siesta: k-grid: Supercell and displacements
siesta: k-grid:    0   6   0      0.500
siesta: k-grid:    6   0   0      0.500
siesta: k-grid:    0   0   6      0.500
Naive supercell factors:     5    5    5

superc: Internal auxiliary supercell:     5 x     5 x     5  =     125
superc: Number of atoms, orbitals, and projectors:   1000  13000  16000

outcell: Unit cell vectors (Ang):
        5.495256   -0.001678   -0.001679
       -0.001678    5.495256   -0.001679
       -0.001679   -0.001679    5.495256

outcell: Cell vector modules (Ang)   :    5.495256    5.495256    5.495256
outcell: Cell angles (23,13,12) (deg):     90.0350     90.0350     90.0350
outcell: Cell volume (Ang**3)        :    165.9448
New_DM. Step:     2
Re-using DM from previous geometry...
Re-using DM without extrapolation (not allowed)
Density Matrix sparsity pattern changed.

InitMesh: MESH =    36 x    36 x    36 =       46656
InitMesh: Mesh cutoff (required, used) =   100.000   118.613 Ry

siesta: iscf   Eharris(eV)      E_KS(eV)   FreeEng(eV)   dDmax  Ef(eV)
siesta:    1    -1030.6682    -1029.6419    -1029.6419  0.0292 -5.0140
siesta:    2    -1030.6720    -1030.6638    -1030.6638  0.0107 -5.0206
siesta:    3    -1030.6666    -1030.6417    -1030.6417  0.0020 -5.0270
siesta:    4    -1030.6666    -1030.6613    -1030.6613  0.0010 -5.0268

siesta: E_KS(eV) =            -1030.6677

siesta: Atomic forces (eV/Ang):
----------------------------------------
   Tot    0.012634    0.012637    0.012653
----------------------------------------
   Max    0.048288
   Res    0.038206    sqrt( Sum f_i^2 / 3N )
----------------------------------------
   Max    0.048288    constrained

Stress-tensor-Voigt (kbar):      -11.18      -11.18      -11.18       -1.67       -1.67       -1.67
(Free)E + p*V (eV/cell)    -1029.5094
Target enthalpy (eV/cell)    -1030.6677

siesta: Stress tensor (static) (eV/Ang**3):
        -0.006980   -0.001043   -0.001043
        -0.001043   -0.006980   -0.001043
        -0.001043   -0.001043   -0.006980

siesta: Pressure (static):         11.18364249  kBar

siesta: Stress tensor (total) (eV/Ang**3):
        -0.006980   -0.001043   -0.001043
        -0.001043   -0.006980   -0.001043
        -0.001043   -0.001043   -0.006980

siesta: Pressure (total):         11.18364249  kBar

mulliken: Mulliken Atomic and Orbital Populations:

Species: Si                  
Atom  Qatom  Qorb
               3s      3s      3py     3pz     3px     3py     3pz     3px     
               3Pdxy   3Pdyz   3Pdz2   3Pdxz   3Pdx2-y2
   1  3.999   0.629   0.577   0.235   0.235   0.235   0.529   0.529   0.529
              0.120   0.120   0.071   0.120   0.071
   2  4.000   0.627   0.578   0.234   0.234   0.234   0.530   0.530   0.530
              0.120   0.120   0.071   0.120   0.071
   3  4.000   0.627   0.578   0.235   0.234   0.235   0.529   0.530   0.529
              0.120   0.120   0.071   0.120   0.071
   4  4.000   0.629   0.577   0.234   0.235   0.234   0.529   0.529   0.529
              0.120   0.120   0.071   0.120   0.071
   5  4.000   0.627   0.578   0.234   0.235   0.235   0.530   0.529   0.529
              0.120   0.120   0.071   0.120   0.071
   6  4.000   0.629   0.577   0.235   0.234   0.234   0.529   0.529   0.529
              0.120   0.120   0.071   0.120   0.071
   7  4.000   0.627   0.578   0.235   0.235   0.234   0.529   0.529   0.530
              0.120   0.120   0.071   0.120   0.071
   8  4.000   0.629   0.577   0.234   0.234   0.235   0.529   0.529   0.529
              0.120   0.120   0.071   0.120   0.071

mulliken: Qtot =       32.000

* Maximum dynamic memory allocated =    83 MB

siesta:                 ==============================
                            Begin CG move =      2
                        ==============================

outcoor: Atomic coordinates (Ang):                          
    0.01465906    0.01465876    0.01465649   1       1  Si
    1.40192639    1.40192592    1.40192469   1       2  Si
    2.80138225    2.80138212    0.00996265   1       3  Si
    4.18834818    4.18834857    1.39791962   1       4  Si
    2.80138195    0.00996627    2.80138139   1       5  Si
    4.18834807    1.39792032    4.18834983   1       6  Si
    0.00996623    2.80138185    2.80138110   1       7  Si
    1.39792064    4.18834837    4.18835006   1       8  Si
 Kpoints in:          108 . Kpoints trimmed:          108

siesta: k-grid: Number of k-points =   108
siesta: k-grid: Cutoff (effective) =    16.799 Ang
siesta: k-grid: Supercell and displacements
siesta: k-grid:    0   6   0      0.500
siesta: k-grid:    6   0   0      0.500
siesta: k-grid:    0   0   6      0.500
Naive supercell factors:     5    5    5

superc: Internal auxiliary supercell:     5 x     5 x     5  =     125
superc: Number of atoms, orbitals, and projectors:   1000  13000  16000

outcell: Unit cell vectors (Ang):
        5.599665   -0.004364   -0.004365
       -0.004364    5.599665   -0.004365
       -0.004365   -0.004365    5.599665

outcell: Cell vector modules (Ang)   :    5.599668    5.599668    5.599669
outcell: Cell angles (23,13,12) (deg):     90.0893     90.0893     90.0893
outcell: Cell volume (Ang**3)        :    175.5842
New_DM. Step:     3
Re-using DM from previous geometry...
Re-using DM without extrapolation (not allowed)

InitMesh: MESH =    36 x    36 x    36 =       46656
InitMesh: Mesh cutoff (required, used) =   100.000   114.231 Ry

siesta: iscf   Eharris(eV)      E_KS(eV)   FreeEng(eV)   dDmax  Ef(eV)
siesta:    1    -1030.5822    -1029.1189    -1029.1189  0.0430 -4.9018
siesta:    2    -1030.5950    -1030.5683    -1030.5683  0.0181 -4.9114
siesta:    3    -1030.5772    -1030.5145    -1030.5145  0.0029 -4.9044
siesta:    4    -1030.5771    -1030.5649    -1030.5649  0.0014 -4.9042
siesta:    5    -1030.5770    -1030.5753    -1030.5753  0.0009 -4.9039

siesta: E_KS(eV) =            -1030.5770

siesta: Atomic forces (eV/Ang):
----------------------------------------
   Tot    0.004584    0.004590    0.004574
----------------------------------------
   Max    0.227077
   Res    0.164369    sqrt( Sum f_i^2 / 3N )
----------------------------------------
   Max    0.227077    constrained

Stress-tensor-Voigt (kbar):       33.59       33.59       33.59       -4.34       -4.34       -4.34
(Free)E + p*V (eV/cell)    -1034.2583
Target enthalpy (eV/cell)    -1030.5770

siesta: Stress tensor (static) (eV/Ang**3):
         0.020966   -0.002707   -0.002708
        -0.002707    0.020966   -0.002708
        -0.002708   -0.002708    0.020966

siesta: Pressure (static):        -33.59142385  kBar

siesta: Stress tensor (total) (eV/Ang**3):
         0.020966   -0.002707   -0.002708
        -0.002707    0.020966   -0.002708
        -0.002708   -0.002708    0.020966

siesta: Pressure (total):        -33.59142385  kBar

mulliken: Mulliken Atomic and Orbital Populations:

Species: Si                  
Atom  Qatom  Qorb
               3s      3s      3py     3pz     3px     3py     3pz     3px     
               3Pdxy   3Pdyz   3Pdz2   3Pdxz   3Pdx2-y2
   1  4.001   0.688   0.549   0.286   0.286   0.286   0.482   0.482   0.482
              0.111   0.111   0.064   0.111   0.064
   2  4.000   0.664   0.560   0.273   0.273   0.273   0.494   0.494   0.494
              0.114   0.114   0.066   0.114   0.066
   3  4.000   0.672   0.556   0.278   0.273   0.278   0.490   0.493   0.490
              0.112   0.113   0.066   0.113   0.065
   4  4.000   0.680   0.552   0.280   0.285   0.280   0.487   0.484   0.487
              0.112   0.112   0.064   0.112   0.065
   5  4.000   0.672   0.556   0.273   0.278   0.278   0.493   0.490   0.490
              0.113   0.113   0.065   0.112   0.066
   6  4.000   0.680   0.552   0.285   0.280   0.280   0.484   0.487   0.487
              0.112   0.112   0.065   0.112   0.064
   7  4.000   0.672   0.556   0.278   0.278   0.273   0.490   0.490   0.493
              0.113   0.112   0.065   0.113   0.066
   8  4.000   0.680   0.552   0.280   0.280   0.285   0.487   0.487   0.484
              0.112   0.112   0.065   0.112   0.064

mulliken: Qtot =       32.000

* Maximum dynamic memory allocated =    83 MB

siesta:                 ==============================
                            Begin CG move =      3
                        ==============================

outcoor: Atomic coordinates (Ang):                          
    0.00740554    0.00740538    0.00740424   1       1  Si
    1.38147047    1.38147023    1.38146961   1       2  Si
    2.76171157    2.76171150    0.00499558   1       3  Si
    4.13562443    4.13562463    1.37940853   1       4  Si
    2.76171142    0.00499741    2.76171114   1       5  Si
    4.13562437    1.37940889    4.13562526   1       6  Si
    0.00499739    2.76171137    2.76171099   1       7  Si
    1.37940905    4.13562452    4.13562538   1       8  Si
 Kpoints in:          108 . Kpoints trimmed:          108

siesta: k-grid: Number of k-points =   108
siesta: k-grid: Cutoff (effective) =    16.551 Ang
siesta: k-grid: Supercell and displacements
siesta: k-grid:    0   6   0      0.500
siesta: k-grid:    6   0   0      0.500
siesta: k-grid:    0   0   6      0.500
Naive supercell factors:     5    5    5

superc: Internal auxiliary supercell:     5 x     5 x     5  =     125
superc: Number of atoms, orbitals, and projectors:   1000  13000  16000

outcell: Unit cell vectors (Ang):
        5.516932   -0.002236   -0.002236
       -0.002236    5.516932   -0.002236
       -0.002236   -0.002236    5.516933

outcell: Cell vector modules (Ang)   :    5.516933    5.516933    5.516934
outcell: Cell angles (23,13,12) (deg):     90.0464     90.0464     90.0464
outcell: Cell volume (Ang**3)        :    167.9163
New_DM. Step:     4
Re-using DM from previous geometry...
Re-using DM without extrapolation (not allowed)

InitMesh: MESH =    36 x    36 x    36 =       46656
InitMesh: Mesh cutoff (required, used) =   100.000   117.682 Ry

siesta: iscf   Eharris(eV)      E_KS(eV)   FreeEng(eV)   dDmax  Ef(eV)
siesta:    1    -1030.6752    -1031.7586    -1031.7586  0.0331 -5.0171
siesta:    2    -1030.6816    -1030.6678    -1030.6678  0.0137 -5.0005
siesta:    3    -1030.6724    -1030.7148    -1030.7148  0.0020 -5.0013
siesta:    4    -1030.6724    -1030.6788    -1030.6788  0.0011 -5.0013
siesta:    5    -1030.6724    -1030.6717    -1030.6717  0.0007 -5.0016

siesta: E_KS(eV) =            -1030.6715

siesta: Atomic forces (eV/Ang):
----------------------------------------
   Tot    0.004912    0.004915    0.004931
----------------------------------------
   Max    0.088688
   Res    0.066440    sqrt( Sum f_i^2 / 3N )
----------------------------------------
   Max    0.088688    constrained

Stress-tensor-Voigt (kbar):       -1.10       -1.10       -1.10       -2.25       -2.25       -2.25
(Free)E + p*V (eV/cell)    -1030.5559
Target enthalpy (eV/cell)    -1030.6715

siesta: Stress tensor (static) (eV/Ang**3):
        -0.000688   -0.001406   -0.001406
        -0.001406   -0.000688   -0.001406
        -0.001406   -0.001406   -0.000688

siesta: Pressure (static):          1.10286962  kBar

siesta: Stress tensor (total) (eV/Ang**3):
        -0.000688   -0.001406   -0.001406
        -0.001406   -0.000688   -0.001406
        -0.001406   -0.001406   -0.000688

siesta: Pressure (total):          1.10286962  kBar

mulliken: Mulliken Atomic and Orbital Populations:

Species: Si                  
Atom  Qatom  Qorb
               3s      3s      3py     3pz     3px     3py     3pz     3px     
               3Pdxy   3Pdyz   3Pdz2   3Pdxz   3Pdx2-y2
   1  3.999   0.642   0.571   0.244   0.244   0.244   0.520   0.520   0.520
              0.118   0.118   0.070   0.118   0.070
   2  4.001   0.634   0.575   0.242   0.242   0.242   0.523   0.523   0.523
              0.119   0.119   0.070   0.119   0.070
   3  4.000   0.636   0.573   0.243   0.241   0.243   0.522   0.523   0.522
              0.119   0.119   0.070   0.119   0.070
   4  4.000   0.639   0.572   0.243   0.245   0.243   0.522   0.520   0.522
              0.119   0.118   0.070   0.118   0.070
   5  4.000   0.636   0.573   0.241   0.243   0.243   0.523   0.522   0.522
              0.119   0.119   0.070   0.119   0.070
   6  4.000   0.639   0.572   0.245   0.243   0.243   0.520   0.522   0.522
              0.118   0.118   0.070   0.119   0.070
   7  4.000   0.636   0.573   0.243   0.243   0.241   0.522   0.522   0.523
              0.119   0.119   0.070   0.119   0.070
   8  4.000   0.639   0.572   0.243   0.243   0.245   0.522   0.522   0.520
              0.118   0.119   0.070   0.118   0.070

mulliken: Qtot =       32.000

cgvc: Finished line minimization    1.  Mean atomic displacement =    0.0942

* Maximum dynamic memory allocated =    83 MB

siesta:                 ==============================
                            Begin CG move =      4
                        ==============================

outcoor: Atomic coordinates (Ang):                          
   -0.02734940   -0.02734815   -0.02733363   1       1  Si
    1.41543260    1.41543470    1.41543406   1       2  Si
    2.77225873    2.77225909   -0.00747151   1       3  Si
    4.21508583    4.21508446    1.43191224   1       4  Si
    2.77225947   -0.00748696    2.77226768   1       5  Si
    4.21508737    1.43191504    4.21507575   1       6  Si
   -0.00748803    2.77226108    2.77226684   1       7  Si
    1.43191389    4.21508471    4.21507413   1       8  Si
 Kpoints in:          108 . Kpoints trimmed:          108

siesta: k-grid: Number of k-points =   108
siesta: k-grid: Cutoff (effective) =    16.647 Ang
siesta: k-grid: Supercell and displacements
siesta: k-grid:    6   0   0      0.500
siesta: k-grid:    0   6   0      0.500
siesta: k-grid:    0   0   6      0.500
Naive supercell factors:     5    5    5

superc: Internal auxiliary supercell:     5 x     5 x     5  =     125
superc: Number of atoms, orbitals, and projectors:   1000  13000  16000

outcell: Unit cell vectors (Ang):
        5.549039    0.017833    0.017839
        0.017833    5.549039    0.017839
        0.017839    0.017839    5.549040

outcell: Cell vector modules (Ang)   :    5.549096    5.549096    5.549097
outcell: Cell angles (23,13,12) (deg):     89.6310     89.6310     89.6311
outcell: Cell volume (Ang**3)        :    170.8598
New_DM. Step:     5
Re-using DM from previous geometry...
Re-using DM without extrapolation (not allowed)
Density Matrix sparsity pattern changed.

InitMesh: MESH =    36 x    36 x    36 =       46656
InitMesh: Mesh cutoff (required, used) =   100.000   116.332 Ry

siesta: iscf   Eharris(eV)      E_KS(eV)   FreeEng(eV)   dDmax  Ef(eV)
siesta:    1    -1030.4900    -1030.1091    -1030.1091  0.0273 -4.8408
siesta:    2    -1030.5243    -1030.4409    -1030.4409  0.0318 -4.8424
siesta:    3    -1030.4701    -1030.3987    -1030.3987  0.0071 -4.8365
siesta:    4    -1030.4701    -1030.4638    -1030.4638  0.0012 -4.8366
siesta:    5    -1030.4699    -1030.4678    -1030.4678  0.0008 -4.8374

siesta: E_KS(eV) =            -1030.4672

siesta: Atomic forces (eV/Ang):
----------------------------------------
   Tot   -0.001625   -0.001628   -0.001608
----------------------------------------
   Max    0.702047
   Res    0.572037    sqrt( Sum f_i^2 / 3N )
----------------------------------------
   Max    0.702047    constrained

Stress-tensor-Voigt (kbar):       10.01       10.01       10.01       18.93       18.94       18.93
(Free)E + p*V (eV/cell)    -1031.5343
Target enthalpy (eV/cell)    -1030.4672

siesta: Stress tensor (static) (eV/Ang**3):
         0.006246    0.011813    0.011818
         0.011813    0.006245    0.011819
         0.011818    0.011819    0.006245

siesta: Pressure (static):        -10.00639400  kBar

siesta: Stress tensor (total) (eV/Ang**3):
         0.006246    0.011813    0.011818
         0.011813    0.006245    0.011819
         0.011818    0.011819    0.006245

siesta: Pressure (total):        -10.00639400  kBar

mulliken: Mulliken Atomic and Orbital Populations:

Species: Si                  
Atom  Qatom  Qorb
               3s      3s      3py     3pz     3px     3py     3pz     3px     
               3Pdxy   3Pdyz   3Pdz2   3Pdxz   3Pdx2-y2
   1  4.004   0.627   0.579   0.250   0.250   0.250   0.517   0.517   0.517
              0.118   0.118   0.071   0.118   0.071
   2  4.000   0.670   0.557   0.263   0.263   0.263   0.502   0.502   0.502
              0.114   0.114   0.067   0.114   0.067
   3  3.999   0.657   0.564   0.255   0.265   0.255   0.510   0.503   0.510
              0.116   0.115   0.067   0.115   0.069
   4  4.000   0.641   0.572   0.257   0.249   0.257   0.510   0.515   0.510
              0.116   0.117   0.070   0.117   0.068
   5  3.999   0.657   0.564   0.265   0.255   0.255   0.503   0.510   0.510
              0.115   0.115   0.068   0.116   0.067
   6  4.000   0.641   0.572   0.249   0.257   0.257   0.515   0.510   0.510
              0.117   0.117   0.069   0.116   0.070
   7  3.999   0.657   0.564   0.255   0.255   0.265   0.510   0.510   0.503
              0.115   0.116   0.068   0.115   0.067
   8  4.000   0.641   0.572   0.257   0.257   0.249   0.510   0.510   0.515
              0.117   0.116   0.069   0.117   0.070

mulliken: Qtot =       32.000

* Maximum dynamic memory allocated =    83 MB

siesta:                 ==============================
                            Begin CG move =      5
                        ==============================

outcoor: Atomic coordinates (Ang):                          
    0.00385109    0.00385108    0.00385156   1       1  Si
    1.38496567    1.38496568    1.38496505   1       2  Si
    2.76282733    2.76282731    0.00373337   1       3  Si
    4.14381131    4.14381135    1.38481019   1       4  Si
    2.76282727    0.00373342    2.76282787   1       5  Si
    4.14381142    1.38481081    4.14381102   1       6  Si
    0.00373329    2.76282739    2.76282765   1       7  Si
    1.38481084    4.14381128    4.14381096   1       8  Si
 Kpoints in:          108 . Kpoints trimmed:          108

siesta: k-grid: Number of k-points =   108
siesta: k-grid: Cutoff (effective) =    16.561 Ang
siesta: k-grid: Supercell and displacements
siesta: k-grid:    0   6   0      0.500
siesta: k-grid:    6   0   0      0.500
siesta: k-grid:    0   0   6      0.500
Naive supercell factors:     5    5    5

superc: Internal auxiliary supercell:     5 x     5 x     5  =     125
superc: Number of atoms, orbitals, and projectors:   1000  13000  16000

outcell: Unit cell vectors (Ang):
        5.520255   -0.000159   -0.000159
       -0.000159    5.520255   -0.000159
       -0.000159   -0.000159    5.520255

outcell: Cell vector modules (Ang)   :    5.520255    5.520255    5.520255
outcell: Cell angles (23,13,12) (deg):     90.0033     90.0033     90.0033
outcell: Cell volume (Ang**3)        :    168.2199
New_DM. Step:     6
Re-using DM from previous geometry...
Re-using DM without extrapolation (not allowed)
Density Matrix sparsity pattern changed.

InitMesh: MESH =    36 x    36 x    36 =       46656
InitMesh: Mesh cutoff (required, used) =   100.000   117.541 Ry

siesta: iscf   Eharris(eV)      E_KS(eV)   FreeEng(eV)   dDmax  Ef(eV)
siesta:    1    -1030.6902    -1030.9980    -1030.9980  0.0237 -4.9950
siesta:    2    -1030.7182    -1030.6512    -1030.6512  0.0255 -4.9915
siesta:    3    -1030.6748    -1030.7161    -1030.7161  0.0061 -5.0041
siesta:    4    -1030.6747    -1030.6614    -1030.6614  0.0009 -5.0030

siesta: E_KS(eV) =            -1030.6643

siesta: Atomic forces (eV/Ang):
----------------------------------------
   Tot    0.006407    0.006409    0.006406
----------------------------------------
   Max    0.047751
   Res    0.040523    sqrt( Sum f_i^2 / 3N )
----------------------------------------
   Max    0.047751    constrained

Stress-tensor-Voigt (kbar):        0.74        0.74        0.74        0.10        0.10        0.10
(Free)E + p*V (eV/cell)    -1030.7421
Target enthalpy (eV/cell)    -1030.6643

siesta: Stress tensor (static) (eV/Ang**3):
         0.000462    0.000065    0.000065
         0.000065    0.000462    0.000065
         0.000065    0.000065    0.000462

siesta: Pressure (static):         -0.74095550  kBar

siesta: Stress tensor (total) (eV/Ang**3):
         0.000462    0.000065    0.000065
         0.000065    0.000462    0.000065
         0.000065    0.000065    0.000462

siesta: Pressure (total):         -0.74095550  kBar

mulliken: Mulliken Atomic and Orbital Populations:

Species: Si                  
Atom  Qatom  Qorb
               3s      3s      3py     3pz     3px     3py     3pz     3px     
               3Pdxy   3Pdyz   3Pdz2   3Pdxz   3Pdx2-y2
   1  4.000   0.641   0.571   0.244   0.244   0.244   0.520   0.520   0.520
              0.118   0.118   0.070   0.118   0.070
   2  4.000   0.638   0.573   0.243   0.243   0.243   0.521   0.521   0.521
              0.119   0.119   0.070   0.119   0.070
   3  4.000   0.639   0.572   0.244   0.243   0.244   0.521   0.521   0.521
              0.118   0.119   0.070   0.119   0.070
   4  4.000   0.640   0.572   0.244   0.245   0.244   0.521   0.520   0.521
              0.118   0.118   0.070   0.118   0.070
   5  4.000   0.639   0.572   0.243   0.244   0.244   0.521   0.521   0.521
              0.119   0.119   0.070   0.118   0.070
   6  4.000   0.640   0.572   0.245   0.244   0.244   0.520   0.521   0.521
              0.118   0.118   0.070   0.118   0.070
   7  4.000   0.639   0.572   0.244   0.244   0.243   0.521   0.521   0.521
              0.119   0.118   0.070   0.119   0.070
   8  4.000   0.640   0.572   0.244   0.244   0.245   0.521   0.521   0.520
              0.118   0.118   0.070   0.118   0.070

mulliken: Qtot =       32.000

cgvc: Finished line minimization    2.  Mean atomic displacement =    0.0097

* Maximum dynamic memory allocated =    83 MB

siesta:                 ==============================
                            Begin CG move =      6
                        ==============================

outcoor: Atomic coordinates (Ang):                          
    0.00077893    0.00077918    0.00078024   1       1  Si
    1.38635528    1.38635564    1.38635770   1       2  Si
    2.76803645    2.76803627    0.00424453   1       3  Si
    4.15366751    4.15366720    1.38937096   1       4  Si
    2.76803641    0.00424348    2.76803569   1       5  Si
    4.15366761    1.38937072    4.15366652   1       6  Si
    0.00424288    2.76803659    2.76803585   1       7  Si
    1.38937044    4.15366733    4.15366629   1       8  Si
 Kpoints in:          108 . Kpoints trimmed:          108

siesta: k-grid: Number of k-points =   108
siesta: k-grid: Cutoff (effective) =    16.573 Ang
siesta: k-grid: Supercell and displacements
siesta: k-grid:    6   0   0      0.500
siesta: k-grid:    0   6   0      0.500
siesta: k-grid:    0   0   6      0.500
Naive supercell factors:     5    5    5

superc: Internal auxiliary supercell:     5 x     5 x     5  =     125
superc: Number of atoms, orbitals, and projectors:   1000  13000  16000

outcell: Unit cell vectors (Ang):
        5.524465    0.003158    0.003159
        0.003158    5.524465    0.003159
        0.003159    0.003159    5.524466

outcell: Cell vector modules (Ang)   :    5.524467    5.524467    5.524467
outcell: Cell angles (23,13,12) (deg):     89.9345     89.9345     89.9345
outcell: Cell volume (Ang**3)        :    168.6050
New_DM. Step:     7
Re-using DM from previous geometry...
Re-using DM without extrapolation (not allowed)
Density Matrix sparsity pattern changed.

InitMesh: MESH =    36 x    36 x    36 =       46656
InitMesh: Mesh cutoff (required, used) =   100.000   117.362 Ry

siesta: iscf   Eharris(eV)      E_KS(eV)   FreeEng(eV)   dDmax  Ef(eV)
siesta:    1    -1030.6736    -1030.6041    -1030.6041  0.0030 -4.9903
siesta:    2    -1030.6757    -1030.6712    -1030.6712  0.0067 -4.9926
siesta:    3    -1030.6727    -1030.6487    -1030.6487  0.0019 -4.9913
siesta:    4    -1030.6727    -1030.6721    -1030.6721  0.0002 -4.9916

siesta: E_KS(eV) =            -1030.6725

siesta: Atomic forces (eV/Ang):
----------------------------------------
   Tot    0.003333    0.003334    0.003418
----------------------------------------
   Max    0.072615
   Res    0.051743    sqrt( Sum f_i^2 / 3N )
----------------------------------------
   Max    0.072615    constrained

Stress-tensor-Voigt (kbar):        2.13        2.13        2.13        2.09        2.09        2.09
(Free)E + p*V (eV/cell)    -1030.8971
Target enthalpy (eV/cell)    -1030.6725

siesta: Stress tensor (static) (eV/Ang**3):
         0.001332    0.001304    0.001305
         0.001304    0.001332    0.001305
         0.001305    0.001305    0.001332

siesta: Pressure (static):         -2.13401476  kBar

siesta: Stress tensor (total) (eV/Ang**3):
         0.001332    0.001304    0.001305
         0.001304    0.001332    0.001305
         0.001305    0.001305    0.001332

siesta: Pressure (total):         -2.13401476  kBar

mulliken: Mulliken Atomic and Orbital Populations:

Species: Si                  
Atom  Qatom  Qorb
               3s      3s      3py     3pz     3px     3py     3pz     3px     
               3Pdxy   3Pdyz   3Pdz2   3Pdxz   3Pdx2-y2
   1  4.001   0.638   0.573   0.245   0.245   0.245   0.520   0.520   0.520
              0.119   0.119   0.070   0.119   0.070
   2  4.000   0.647   0.568   0.247   0.247   0.247   0.517   0.517   0.517
              0.118   0.118   0.069   0.118   0.069
   3  4.000   0.644   0.569   0.246   0.248   0.246   0.519   0.517   0.519
              0.118   0.118   0.069   0.118   0.070
   4  4.000   0.641   0.571   0.246   0.244   0.246   0.519   0.520   0.519
              0.118   0.118   0.070   0.118   0.069
   5  4.000   0.644   0.569   0.248   0.246   0.246   0.517   0.519   0.519
              0.118   0.118   0.069   0.118   0.069
   6  4.000   0.641   0.571   0.244   0.246   0.246   0.520   0.519   0.519
              0.118   0.118   0.070   0.118   0.070
   7  4.000   0.644   0.570   0.246   0.246   0.248   0.519   0.519   0.517
              0.118   0.118   0.069   0.118   0.069
   8  4.000   0.641   0.571   0.246   0.246   0.244   0.519   0.519   0.520
              0.118   0.118   0.070   0.118   0.070

mulliken: Qtot =       32.000

* Maximum dynamic memory allocated =    83 MB

siesta:                 ==============================
                            Begin CG move =      7
                        ==============================

outcoor: Atomic coordinates (Ang):                          
    0.00456738    0.00456731    0.00456765   1       1  Si
    1.38464014    1.38464006    1.38463881   1       2  Si
    2.76160992    2.76160993    0.00361378   1       3  Si
    4.14150877    4.14150888    1.38374508   1       4  Si
    2.76160986    0.00361409    2.76161077   1       5  Si
    4.14150888    1.38374590    4.14150863   1       6  Si
    0.00361407    2.76160997    2.76161046   1       7  Si
    1.38374600    4.14150877    4.14150861   1       8  Si
 Kpoints in:          108 . Kpoints trimmed:          108

siesta: k-grid: Number of k-points =   108
siesta: k-grid: Cutoff (effective) =    16.558 Ang
siesta: k-grid: Supercell and displacements
siesta: k-grid:    0   6   0      0.500
siesta: k-grid:    6   0   0      0.500
siesta: k-grid:    0   0   6      0.500
Naive supercell factors:     5    5    5

superc: Internal auxiliary supercell:     5 x     5 x     5  =     125
superc: Number of atoms, orbitals, and projectors:   1000  13000  16000

outcell: Unit cell vectors (Ang):
        5.519271   -0.000935   -0.000935
       -0.000935    5.519270   -0.000935
       -0.000935   -0.000935    5.519271

outcell: Cell vector modules (Ang)   :    5.519271    5.519271    5.519271
outcell: Cell angles (23,13,12) (deg):     90.0194     90.0194     90.0194
outcell: Cell volume (Ang**3)        :    168.1299
New_DM. Step:     8
Re-using DM from previous geometry...
Re-using DM without extrapolation (not allowed)
Density Matrix sparsity pattern changed.

InitMesh: MESH =    36 x    36 x    36 =       46656
InitMesh: Mesh cutoff (required, used) =   100.000   117.583 Ry

siesta: iscf   Eharris(eV)      E_KS(eV)   FreeEng(eV)   dDmax  Ef(eV)
siesta:    1    -1030.6755    -1030.7458    -1030.7458  0.0033 -4.9990
siesta:    2    -1030.6791    -1030.6721    -1030.6721  0.0081 -4.9989
siesta:    3    -1030.6745    -1030.6997    -1030.6997  0.0022 -4.9984
siesta:    4    -1030.6745    -1030.6739    -1030.6739  0.0001 -4.9980

siesta: E_KS(eV) =            -1030.6740

siesta: Atomic forces (eV/Ang):
----------------------------------------
   Tot    0.004846    0.004848    0.004838
----------------------------------------
   Max    0.025144
   Res    0.019090    sqrt( Sum f_i^2 / 3N )
----------------------------------------
   Max    0.025144    constrained

Stress-tensor-Voigt (kbar):       -0.18       -0.18       -0.18       -0.13       -0.13       -0.13
(Free)E + p*V (eV/cell)    -1030.6547
Target enthalpy (eV/cell)    -1030.6740

siesta: Stress tensor (static) (eV/Ang**3):
        -0.000115   -0.000081   -0.000081
        -0.000081   -0.000115   -0.000081
        -0.000081   -0.000081   -0.000115

siesta: Pressure (static):          0.18408061  kBar

siesta: Stress tensor (total) (eV/Ang**3):
        -0.000115   -0.000081   -0.000081
        -0.000081   -0.000115   -0.000081
        -0.000081   -0.000081   -0.000115

siesta: Pressure (total):          0.18408061  kBar

mulliken: Mulliken Atomic and Orbital Populations:

Species: Si                  
Atom  Qatom  Qorb
               3s      3s      3py     3pz     3px     3py     3pz     3px     
               3Pdxy   3Pdyz   3Pdz2   3Pdxz   3Pdx2-y2
   1  4.000   0.642   0.570   0.245   0.245   0.245   0.520   0.520   0.520
              0.118   0.118   0.070   0.118   0.070
   2  4.000   0.637   0.573   0.243   0.243   0.243   0.522   0.522   0.522
              0.119   0.119   0.070   0.119   0.070
   3  4.000   0.638   0.573   0.244   0.243   0.244   0.521   0.522   0.521
              0.118   0.119   0.070   0.119   0.070
   4  4.000   0.640   0.572   0.244   0.245   0.244   0.521   0.520   0.521
              0.118   0.118   0.070   0.118   0.070
   5  4.000   0.638   0.573   0.243   0.244   0.244   0.522   0.521   0.521
              0.119   0.119   0.070   0.118   0.070
   6  4.000   0.640   0.572   0.245   0.244   0.244   0.520   0.521   0.521
              0.118   0.118   0.070   0.118   0.070
   7  4.000   0.638   0.573   0.244   0.244   0.243   0.521   0.521   0.522
              0.119   0.118   0.070   0.119   0.070
   8  4.000   0.640   0.572   0.244   0.244   0.245   0.521   0.521   0.520
              0.118   0.118   0.070   0.118   0.070

mulliken: Qtot =       32.000

* Maximum dynamic memory allocated =    83 MB

outcoor: Relaxed atomic coordinates (Ang):                  
    0.00456738    0.00456731    0.00456765   1       1  Si
    1.38464014    1.38464006    1.38463881   1       2  Si
    2.76160992    2.76160993    0.00361378   1       3  Si
    4.14150877    4.14150888    1.38374508   1       4  Si
    2.76160986    0.00361409    2.76161077   1       5  Si
    4.14150888    1.38374590    4.14150863   1       6  Si
    0.00361407    2.76160997    2.76161046   1       7  Si
    1.38374600    4.14150877    4.14150861   1       8  Si

outcell: Unit cell vectors (Ang):
        5.519271   -0.000935   -0.000935
       -0.000935    5.519270   -0.000935
       -0.000935   -0.000935    5.519271

outcell: Cell vector modules (Ang)   :    5.519271    5.519271    5.519271
outcell: Cell angles (23,13,12) (deg):     90.0194     90.0194     90.0194
outcell: Cell volume (Ang**3)        :    168.1299

coxmol: Writing XMOL coordinates into file si.xyz                                                          
Writing WFSX for selected k-points in si.selected.WFSX

writewave: Wave Functions Coefficients

     Number of k-points =        1
        Number of Spins =        1
   Number of basis orbs =      104


                                                                  ******
            k-point =        1    0.000000  0.000000  0.000000
     Spin component =        1
 Num. wavefunctions =       50
Use readwfsx utility to print wavefunction coefficients from WFSX file
Computing bands...

siesta: Band k vectors (Bohr**-1):
  ik           k
   1    0.306162    0.306162    0.306162
   2    0.293915    0.293915    0.293915
   3    0.281669    0.281669    0.281669
   4    0.269422    0.269422    0.269422
   5    0.257176    0.257176    0.257176
   6    0.244929    0.244929    0.244929
   7    0.232683    0.232683    0.232683
   8    0.220436    0.220436    0.220436
   9    0.208190    0.208190    0.208190
  10    0.195944    0.195944    0.195944
  11    0.183697    0.183697    0.183697
  12    0.171451    0.171451    0.171451
  13    0.159204    0.159204    0.159204
  14    0.146958    0.146958    0.146958
  15    0.134711    0.134711    0.134711
  16    0.122465    0.122465    0.122465
  17    0.110218    0.110218    0.110218
  18    0.097972    0.097972    0.097972
  19    0.085725    0.085725    0.085725
  20    0.073479    0.073479    0.073479
  21    0.061232    0.061232    0.061232
  22    0.048986    0.048986    0.048986
  23    0.036739    0.036739    0.036739
  24    0.024493    0.024493    0.024493
  25    0.012246    0.012246    0.012246
  26    0.000000    0.000000    0.000000
  27    0.020411    0.000000    0.000000
  28    0.040822    0.000000    0.000000
  29    0.061232    0.000000    0.000000
  30    0.081643    0.000000    0.000000
  31    0.102054    0.000000    0.000000
  32    0.122465    0.000000    0.000000
  33    0.142876    0.000000    0.000000
  34    0.163286    0.000000    0.000000
  35    0.183697    0.000000    0.000000
  36    0.204108    0.000000    0.000000
  37    0.224519    0.000000    0.000000
  38    0.244929    0.000000    0.000000
  39    0.265340    0.000000    0.000000
  40    0.285751    0.000000    0.000000
  41    0.306162    0.000000    0.000000
  42    0.326573    0.000000    0.000000
  43    0.346983    0.000000    0.000000
  44    0.367394    0.000000    0.000000
  45    0.387805    0.000000    0.000000
  46    0.408216    0.000000    0.000000
  47    0.428627    0.000000    0.000000
  48    0.449037    0.000000    0.000000
  49    0.469448    0.000000    0.000000
  50    0.489859    0.000000    0.000000
  51    0.510270    0.000000    0.000000
  52    0.530680    0.000000    0.000000
  53    0.551091    0.000000    0.000000
  54    0.571502    0.000000    0.000000
  55    0.591913    0.000000    0.000000
  56    0.612324    0.000000    0.000000
  57    0.612324    0.015308    0.015308
  58    0.612324    0.030616    0.030616
  59    0.612324    0.045924    0.045924
  60    0.612324    0.061232    0.061232
  61    0.612324    0.076540    0.076540
  62    0.612324    0.091849    0.091849
  63    0.612324    0.107157    0.107157
  64    0.612324    0.122465    0.122465
  65    0.612324    0.137773    0.137773
  66    0.612324    0.153081    0.153081
  67    0.594829    0.148707    0.148707
  68    0.577334    0.144333    0.144333
  69    0.559839    0.139960    0.139960
  70    0.542344    0.135586    0.135586
  71    0.524849    0.131212    0.131212
  72    0.507354    0.126838    0.126838
  73    0.489859    0.122465    0.122465
  74    0.472364    0.118091    0.118091
  75    0.454869    0.113717    0.113717
  76    0.437374    0.109344    0.109344
  77    0.419879    0.104970    0.104970
  78    0.402384    0.100596    0.100596
  79    0.384889    0.096222    0.096222
  80    0.367394    0.091849    0.091849
  81    0.349899    0.087475    0.087475
  82    0.332404    0.083101    0.083101
  83    0.314909    0.078727    0.078727
  84    0.297414    0.074354    0.074354
  85    0.279919    0.069980    0.069980
  86    0.262424    0.065606    0.065606
  87    0.244929    0.061232    0.061232
  88    0.227434    0.056859    0.056859
  89    0.209940    0.052485    0.052485
  90    0.192445    0.048111    0.048111
  91    0.174950    0.043737    0.043737
  92    0.157455    0.039364    0.039364
  93    0.139960    0.034990    0.034990
  94    0.122465    0.030616    0.030616
  95    0.104970    0.026242    0.026242
  96    0.087475    0.021869    0.021869
  97    0.069980    0.017495    0.017495
  98    0.052485    0.013121    0.013121
  99    0.034990    0.008747    0.008747
 100    0.017495    0.004374    0.004374
 101    0.000000    0.000000    0.000000

siesta: Band energies (eV):
  ik is    eps
   1  1 -14.87 -14.86 -14.86 -14.85 -12.20 -12.20 -12.20 -12.19  -6.61  -6.61
         -6.60  -6.60  -6.60  -6.59  -6.58  -6.58  -4.00  -3.99  -3.99  -3.99
         -1.95  -1.95  -1.94  -1.93  -1.93  -1.93  -1.93  -1.93   3.49   3.52
          3.52   3.53   5.51   5.51   5.51   5.54   5.54   5.59   5.59   5.59
          5.93   5.96   5.96   5.96   6.05   6.05   6.05   6.11   6.11   6.13
          6.13   6.13   8.37   8.37   8.37   8.38  16.43  16.43  16.43  16.44
         17.38  17.38  17.39  17.40  17.40  17.40  17.40  17.40  19.38  19.38
         19.39  19.39  19.39  19.39  19.41  19.41  19.93  19.93  19.93  20.01
         28.95  28.95  28.95  28.96  28.96  28.97  28.97  28.97  65.04  65.20
         65.20  65.30  79.34  79.34  79.54  79.72  79.72  79.81  80.13  80.13
        115.90 116.84 116.84 116.91
   2  1 -14.87 -14.86 -14.86 -14.85 -12.20 -12.20 -12.20 -12.18  -6.61  -6.61
         -6.60  -6.60  -6.60  -6.60  -6.58  -6.58  -4.00  -3.98  -3.98  -3.98
         -1.95  -1.95  -1.94  -1.93  -1.93  -1.93  -1.92  -1.92   3.49   3.51
          3.51   3.53   5.43   5.43   5.43   5.48   5.48   5.58   5.58   5.58
          5.92   5.97   5.97   5.98   6.05   6.05   6.06   6.18   6.18   6.21
          6.21   6.21   8.37   8.37   8.37   8.39  16.42  16.43  16.43  16.43
         17.37  17.37  17.39  17.39  17.39  17.39  17.39  17.39  19.38  19.38
         19.39  19.39  19.39  19.39  19.42  19.42  19.89  19.89  19.89  20.03
         28.94  28.94  28.94  28.96  28.96  28.98  28.98  28.98  64.91  65.18
         65.18  65.24  78.35  78.35  78.42  79.34  79.34  79.41  79.95  79.95
        115.53 116.95 116.95 117.01
   3  1 -14.91 -14.86 -14.86 -14.85 -12.19 -12.19 -12.19 -12.12  -6.70  -6.70
         -6.69  -6.62  -6.62  -6.62  -6.58  -6.58  -3.99  -3.89  -3.89  -3.89
         -1.96  -1.96  -1.96  -1.93  -1.93  -1.88  -1.88  -1.88   3.46   3.47
          3.47   3.50   4.98   4.98   4.98   5.11   5.11   5.56   5.56   5.56
          5.80   6.02   6.02   6.02   6.10   6.10   6.10   6.59   6.59   6.72
          6.72   6.72   8.41   8.41   8.41   8.48  16.31  16.41  16.41  16.41
         17.21  17.21  17.28  17.28  17.28  17.35  17.35  17.35  19.33  19.33
         19.33  19.34  19.34  19.34  19.47  19.47  19.47  19.52  19.52  20.21
         28.81  28.81  28.81  29.01  29.01  29.04  29.04  29.04  63.22  64.41
         64.41  64.43  70.63  70.63  70.64  75.65  75.67  75.67  79.56  79.56
        111.80 114.83 114.83 114.86
   4  1 -15.00 -14.85 -14.85 -14.84 -12.16 -12.16 -12.16 -11.99  -6.85  -6.85
         -6.85  -6.67  -6.67  -6.66  -6.57  -6.57  -3.98  -3.73  -3.73  -3.73
         -1.99  -1.99  -1.99  -1.92  -1.92  -1.80  -1.80  -1.80   3.35   3.35
          3.35   3.47   4.60   4.60   4.60   4.72   4.72   5.52   5.52   5.52
          5.61   6.09   6.09   6.09   6.17   6.17   6.17   7.04   7.04   7.27
          7.27   7.27   8.48   8.48   8.48   8.63  16.14  16.31  16.31  16.31
         16.95  16.95  17.07  17.07  17.08  17.30  17.30  17.30  18.78  18.78
         18.78  19.23  19.23  19.23  19.39  19.39  19.39  19.68  19.68  20.52
         28.56  28.56  28.56  29.10  29.10  29.19  29.19  29.19  59.02  59.02
         59.03  60.10  67.33  67.33  67.34  70.28  70.30  70.30  79.06  79.06
        106.32 106.55 106.55 106.61
   5  1 -15.10 -14.83 -14.83 -14.83 -12.13 -12.13 -12.13 -11.82  -7.05  -7.05
         -7.05  -6.73  -6.73  -6.73  -6.56  -6.56  -3.96  -3.55  -3.55  -3.55
         -2.01  -2.01  -2.01  -1.91  -1.91  -1.68  -1.68  -1.68   3.11   3.11
          3.11   3.42   4.33   4.33   4.35   4.35   4.35   5.39   5.47   5.47
          5.47   6.19   6.19   6.19   6.27   6.27   6.27   7.51   7.51   7.80
          7.80   7.80   8.62   8.62   8.62   8.78  15.96  16.10  16.10  16.10
         16.61  16.61  16.79  16.79  16.80  17.26  17.26  17.26  18.21  18.21
         18.21  19.07  19.07  19.07  19.39  19.39  19.39  19.86  19.86  20.91
         28.19  28.19  28.19  29.23  29.23  29.46  29.46  29.46  52.13  52.13
         52.13  56.00  65.06  65.07  65.07  67.17  67.17  67.18  78.33  78.33
         96.52  96.52  96.53 100.88
   6  1 -15.23 -14.81 -14.81 -14.81 -12.09 -12.09 -12.09 -11.61  -7.28  -7.28
         -7.28  -6.80  -6.80  -6.80  -6.53  -6.53  -3.93  -3.38  -3.38  -3.38
         -2.00  -2.00  -2.00  -1.89  -1.89  -1.52  -1.52  -1.52   2.75   2.75
          2.75   3.34   3.97   3.97   4.25   4.25   4.25   5.18   5.43   5.43
          5.43   6.30   6.30   6.30   6.37   6.37   6.37   7.99   7.99   8.21
          8.21   8.21   8.90   8.92   8.92   8.92  15.76  15.76  15.76  15.82
         16.23  16.23  16.46  16.46  16.46  17.21  17.21  17.21  17.87  17.87
         17.87  18.87  18.87  18.87  19.41  19.41  19.41  20.04  20.04  21.35
         27.71  27.71  27.71  29.38  29.38  29.86  29.86  29.86  46.36  46.36
         46.36  51.56  60.88  60.88  60.88  67.14  67.14  67.15  77.38  77.38
         88.72  88.72  88.72  96.09
   7  1 -15.37 -14.79 -14.79 -14.79 -12.04 -12.04 -12.04 -11.37  -7.51  -7.51
         -7.51  -6.89  -6.89  -6.89  -6.50  -6.50  -3.89  -3.26  -3.26  -3.26
         -1.91  -1.91  -1.91  -1.87  -1.87  -1.33  -1.33  -1.33   2.31   2.31
          2.31   3.22   3.63   3.63   4.24   4.24   4.24   5.00   5.39   5.39
          5.39   6.43   6.43   6.43   6.48   6.48   6.48   8.45   8.45   8.45
          8.47   8.47   8.96   9.41   9.41   9.41  15.36  15.36  15.36  15.73
         15.84  15.84  16.08  16.08  16.08  17.07  17.07  17.07  17.78  17.78
         17.78  18.63  18.63  18.63  19.47  19.47  19.47  20.21  20.21  21.84
         27.14  27.15  27.15  29.56  29.56  30.36  30.36  30.36  41.71  41.71
         41.71  47.36  57.95  57.95  57.95  66.75  66.75  66.75  76.28  76.28
         84.03  84.03  84.03  91.99
   8  1 -15.51 -14.76 -14.76 -14.76 -11.98 -11.98 -11.98 -11.10  -7.75  -7.75
         -7.75  -6.98  -6.98  -6.98  -6.46  -6.46  -3.85  -3.22  -3.22  -3.22
         -1.85  -1.85  -1.73  -1.73  -1.73  -1.12  -1.12  -1.12   1.84   1.84
          1.84   3.05   3.30   3.30   4.28   4.28   4.28   4.87   5.36   5.36
          5.36   6.56   6.56   6.56   6.59   6.59   6.59   8.61   8.62   8.62
          8.93   8.94   8.94  10.00  10.00  10.00  14.94  14.94  14.94  15.44
         15.44  15.67  15.67  15.68  15.71  16.89  16.89  16.89  17.86  17.86
         17.86  18.35  18.35  18.35  19.55  19.56  19.56  20.36  20.36  22.37
         26.51  26.51  26.51  29.76  29.76  30.93  30.93  30.93  38.01  38.01
         38.01  43.72  56.14  56.14  56.14  65.84  65.84  65.85  75.11  75.11
         81.82  81.83  81.83  88.30
   9  1 -15.66 -14.73 -14.73 -14.73 -11.92 -11.92 -11.92 -10.82  -7.98  -7.98
         -7.98  -7.08  -7.08  -7.08  -6.42  -6.42  -3.80  -3.26  -3.26  -3.26
         -1.84  -1.84  -1.47  -1.47  -1.47  -0.87  -0.87  -0.87   1.36   1.36
          1.36   2.83   3.01   3.01   4.35   4.35   4.35   4.81   5.34   5.34
          5.34   6.68   6.68   6.68   6.71   6.71   6.71   8.77   8.77   8.77
          8.82   9.38   9.38  10.62  10.62  10.62  14.54  14.54  14.54  15.06
         15.06  15.26  15.26  15.26  15.75  16.72  16.72  16.72  17.99  17.99
         17.99  18.04  18.04  18.04  19.68  19.68  19.68  20.49  20.49  22.94
         25.84  25.84  25.84  29.96  29.96  31.50  31.50  31.50  35.12  35.12
         35.13  40.74  55.22  55.22  55.22  64.55  64.55  64.56  73.98  73.98
         81.08  81.08  81.08  84.80
  10  1 -15.80 -14.68 -14.68 -14.68 -11.86 -11.86 -11.86 -10.51  -8.21  -8.21
         -8.21  -7.18  -7.18  -7.18  -6.37  -6.37  -3.75  -3.34  -3.34  -3.34
         -1.82  -1.82  -1.15  -1.15  -1.15  -0.61  -0.61  -0.61   0.88   0.88
          0.88   2.57   2.74   2.74   4.43   4.43   4.43   4.81   5.33   5.33
          5.33   6.80   6.80   6.80   6.82   6.82   6.82   8.62   8.94   8.94
          8.94   9.78   9.78  11.22  11.22  11.22  14.13  14.13  14.13  14.73
         14.73  14.85  14.85  14.85  15.84  16.58  16.58  16.58  17.69  17.69
         17.69  18.14  18.14  18.14  19.85  19.85  19.85  20.60  20.60  23.57
         25.16  25.16  25.16  30.18  30.18  31.67  31.67  31.67  33.22  33.22
         33.22  38.41  54.97  54.97  54.97  62.96  62.96  62.96  73.04  73.04
         80.92  80.94  80.94  81.34
  11  1 -15.94 -14.64 -14.64 -14.64 -11.80 -11.80 -11.80 -10.19  -8.41  -8.41
         -8.41  -7.29  -7.29  -7.29  -6.32  -6.32  -3.69  -3.44  -3.44  -3.44
         -1.82  -1.82  -0.79  -0.79  -0.79  -0.32  -0.32  -0.32   0.40   0.40
          0.40   2.28   2.51   2.51   4.52   4.53   4.53   4.85   5.33   5.33
          5.33   6.90   6.90   6.90   6.93   6.93   6.93   8.36   9.13   9.13
          9.13  10.08  10.08  11.81  11.81  11.81  13.72  13.72  13.72  14.44
         14.44  14.44  14.51  14.51  15.96  16.50  16.50  16.50  17.33  17.33
         17.33  18.28  18.28  18.28  20.05  20.05  20.05  20.69  20.69  24.21
         24.48  24.48  24.48  30.40  30.40  30.44  30.44  30.44  33.10  33.10
         33.10  36.67  55.21  55.21  55.21  61.00  61.00  61.00  72.42  72.42
         77.84  80.84  80.85  80.85
  12  1 -16.08 -14.58 -14.58 -14.58 -11.75 -11.75 -11.75  -9.86  -8.59  -8.59
         -8.59  -7.39  -7.39  -7.39  -6.26  -6.26  -3.62  -3.56  -3.56  -3.56
         -1.83  -1.83  -0.41  -0.41  -0.41  -0.07  -0.07  -0.07  -0.01  -0.01
         -0.01   1.97   2.31   2.31   4.62   4.62   4.62   4.92   5.33   5.33
          5.33   6.98   6.98   6.98   7.03   7.03   7.03   8.04   9.36   9.36
          9.36  10.24  10.24  12.36  12.36  12.36  13.31  13.31  13.31  14.03
         14.03  14.03  14.44  14.44  16.11  16.46  16.46  16.46  16.96  16.96
         16.96  18.40  18.40  18.40  20.28  20.28  20.28  20.75  20.75  23.82
         23.82  23.82  24.79  28.98  28.98  28.98  30.66  30.66  33.40  33.40
         33.40  35.50  55.81  55.81  55.82  58.56  58.56  58.56  72.26  72.26
         74.37  80.54  80.54  80.54
  13  1 -16.20 -14.52 -14.52 -14.52 -11.71 -11.71 -11.71  -9.52  -8.74  -8.74
         -8.74  -7.49  -7.49  -7.49  -6.20  -6.20  -3.68  -3.68  -3.68  -3.55
         -1.85  -1.85  -0.54  -0.54  -0.54  -0.01  -0.01  -0.01   0.31   0.31
          0.31   1.64   2.15   2.15   4.72   4.72   4.72   5.01   5.34   5.34
          5.34   7.05   7.05   7.05   7.12   7.12   7.12   7.69   9.65   9.65
          9.65  10.23  10.23  12.66  12.66  12.66  13.11  13.11  13.11  13.62
         13.62  13.62  14.56  14.56  16.27  16.46  16.46  16.46  16.59  16.59
         16.59  18.49  18.49  18.49  20.53  20.53  20.53  20.80  20.80  23.17
         23.17  23.17  25.16  27.73  27.73  27.73  30.93  30.93  33.56  33.56
         33.57  34.92  55.63  55.63  55.63  56.67  56.67  56.67  71.03  72.68
         72.68  79.93  79.93  79.93
  14  1 -16.33 -14.45 -14.45 -14.45 -11.70 -11.70 -11.70  -9.16  -8.85  -8.85
         -8.85  -7.58  -7.58  -7.58  -6.13  -6.13  -3.80  -3.80  -3.80  -3.47
         -1.89  -1.89  -1.00  -1.00  -1.00   0.40   0.40   0.40   0.65   0.65
          0.65   1.31   2.04   2.04   4.82   4.82   4.82   5.10   5.36   5.36
          5.36   7.10   7.10   7.10   7.20   7.20   7.20   7.34   9.98   9.98
          9.98  10.07  10.07  12.32  12.32  12.32  13.20  13.20  13.20  13.52
         13.52  13.52  14.86  14.86  16.23  16.23  16.23  16.44  16.50  16.50
         16.51  18.55  18.55  18.55  20.78  20.78  20.78  20.84  20.84  22.55
         22.55  22.55  25.17  26.68  26.68  26.68  31.24  31.24  33.53  33.53
         33.53  34.95  52.36  52.36  52.36  57.70  57.70  57.70  67.98  73.80
         73.80  79.04  79.05  79.05
  15  1 -16.44 -14.38 -14.38 -14.38 -11.71 -11.71 -11.71  -8.92  -8.92  -8.92
         -8.80  -7.67  -7.67  -7.67  -6.05  -6.05  -3.91  -3.91  -3.91  -3.39
         -1.95  -1.95  -1.44  -1.44  -1.44   0.82   0.82   0.82   0.97   1.00
          1.00   1.00   1.96   1.96   4.91   4.91   4.91   5.17   5.39   5.39
          5.39   7.00   7.13   7.13   7.14   7.27   7.27   7.27   9.79   9.79
         10.36  10.36  10.36  11.88  11.88  11.88  12.76  12.76  12.76  13.99
         13.99  13.99  15.28  15.28  15.92  15.92  15.92  16.57  16.58  16.58
         16.65  18.59  18.59  18.59  20.85  20.85  21.02  21.03  21.03  21.96
         21.96  21.96  24.77  25.79  25.79  25.79  31.58  31.58  33.28  33.28
         33.28  35.48  49.01  49.01  49.01  58.84  58.84  58.84  65.45  75.77
         75.77  77.96  77.96  77.96
  16  1 -16.54 -14.30 -14.30 -14.30 -11.75 -11.75 -11.75  -8.95  -8.95  -8.95
         -8.43  -7.76  -7.76  -7.76  -5.98  -5.98  -4.02  -4.02  -4.02  -3.30
         -2.02  -2.02  -1.86  -1.86  -1.86   0.62   1.24   1.24   1.24   1.36
          1.36   1.36   1.93   1.93   4.99   5.00   5.00   5.20   5.43   5.43
          5.43   6.71   7.15   7.15   7.15   7.32   7.32   7.32   9.44   9.44
         10.74  10.74  10.74  11.47  11.47  11.47  12.30  12.30  12.30  14.45
         14.45  14.45  15.65  15.65  15.65  15.77  15.77  16.67  16.67  16.67
         16.87  18.59  18.59  18.59  20.85  20.85  21.25  21.25  21.25  21.40
         21.40  21.40  24.06  25.04  25.04  25.05  31.95  31.95  32.85  32.85
         32.85  36.20  45.87  45.87  45.87  60.04  60.04  60.04  63.71  76.76
         76.76  76.76  78.73  78.73
  17  1 -16.64 -14.21 -14.21 -14.21 -11.82 -11.82 -11.82  -8.94  -8.94  -8.94
         -8.06  -7.83  -7.83  -7.83  -5.90  -5.90  -4.12  -4.12  -4.12  -3.21
         -2.27  -2.27  -2.27  -2.11  -2.11   0.26   1.67   1.67   1.67   1.73
          1.73   1.73   1.93   1.93   5.08   5.08   5.08   5.15   5.47   5.47
          5.47   6.52   7.16   7.16   7.16   7.36   7.36   7.36   9.07   9.07
         10.76  10.76  10.76  11.46  11.46  11.46  11.81  11.81  11.81  14.87
         14.87  14.87  15.44  15.44  15.44  16.29  16.29  16.78  16.78  16.78
         17.10  18.58  18.58  18.58  20.83  20.83  20.86  20.86  20.87  21.42
         21.42  21.42  23.17  24.42  24.42  24.42  32.30  32.30  32.32  32.36
         32.36  36.76  43.13  43.13  43.13  61.25  61.26  61.26  63.06  75.52
         75.52  75.53  82.83  82.83
  18  1 -16.72 -14.11 -14.11 -14.11 -11.92 -11.92 -11.92  -8.88  -8.88  -8.88
         -7.90  -7.90  -7.90  -7.68  -5.82  -5.82  -4.21  -4.21  -4.21  -3.13
         -2.66  -2.66  -2.66  -2.21  -2.21  -0.10   1.97   1.97   2.09   2.09
          2.09   2.11   2.11   2.11   5.02   5.16   5.16   5.16   5.52   5.52
          5.52   6.44   7.16   7.16   7.16   7.38   7.38   7.38   8.69   8.69
         10.36  10.36  10.36  11.31  11.31  11.31  11.88  11.89  11.89  15.24
         15.24  15.24  15.28  15.29  15.29  16.82  16.82  16.88  16.89  16.89
         17.33  18.55  18.55  18.55  20.36  20.36  20.36  20.80  20.80  21.52
         21.52  21.52  22.22  23.88  23.88  23.88  31.77  31.77  31.77  32.75
         32.75  36.90  40.85  40.85  40.85  62.46  62.46  62.46  63.72  74.30
         74.30  74.30  88.22  88.22
  19  1 -16.80 -14.01 -14.01 -14.01 -12.04 -12.04 -12.04  -8.80  -8.80  -8.80
         -7.97  -7.97  -7.97  -7.31  -5.74  -5.74  -4.29  -4.29  -4.29  -3.04
         -3.02  -3.02  -3.02  -2.32  -2.32  -0.46   2.04   2.04   2.48   2.48
          2.48   2.50   2.50   2.50   4.83   5.24   5.24   5.24   5.58   5.58
          5.58   6.44   7.15   7.15   7.15   7.39   7.39   7.39   8.31   8.31
          9.91   9.91   9.91  10.78  10.78  10.78  12.38  12.38  12.38  15.19
         15.19  15.19  15.56  15.57  15.57  16.99  16.99  16.99  17.33  17.33
         17.54  18.53  18.53  18.53  19.90  19.90  19.90  20.76  20.76  21.30
         21.51  21.52  21.52  23.43  23.43  23.43  31.31  31.31  31.31  33.14
         33.14  36.55  39.02  39.02  39.02  63.62  63.62  63.62  65.76  73.11
         73.11  73.12  95.00  95.00
  20  1 -16.87 -13.90 -13.90 -13.90 -12.18 -12.18 -12.18  -8.69  -8.69  -8.69
         -8.02  -8.02  -8.02  -6.93  -5.66  -5.66  -4.36  -4.36  -4.36  -3.36
         -3.36  -3.36  -2.96  -2.43  -2.43  -0.82   2.12   2.12   2.86   2.86
          2.86   2.91   2.91   2.91   4.65   5.33   5.33   5.33   5.65   5.65
          5.65   6.49   7.14   7.14   7.14   7.39   7.39   7.39   7.96   7.96
          9.45   9.45   9.45  10.26  10.26  10.26  12.90  12.90  12.90  15.15
         15.15  15.15  15.82  15.82  15.82  17.07  17.07  17.07  17.67  17.81
         17.81  18.50  18.50  18.50  19.46  19.46  19.46  20.51  20.69  20.69
         21.42  21.42  21.42  23.04  23.04  23.04  31.03  31.03  31.03  33.50
         33.50  35.89  37.56  37.57  37.57  64.70  64.71  64.71  69.12  71.99
         71.99  72.00 103.15 103.15
  21  1 -16.92 -13.78 -13.78 -13.78 -12.32 -12.32 -12.32  -8.58  -8.58  -8.58
         -8.07  -8.07  -8.07  -6.56  -5.58  -5.58  -4.42  -4.42  -4.42  -3.66
         -3.66  -3.66  -2.88  -2.54  -2.54  -1.18   2.22   2.22   3.22   3.22
          3.22   3.28   3.28   3.28   4.52   5.43   5.43   5.43   5.72   5.72
          5.72   6.55   7.13   7.13   7.13   7.39   7.39   7.39   7.63   7.63
          9.00   9.00   9.00   9.74   9.74   9.74  13.41  13.41  13.41  15.16
         15.16  15.16  16.02  16.02  16.02  17.13  17.13  17.13  17.63  18.24
         18.24  18.46  18.46  18.46  19.07  19.07  19.07  19.97  20.61  20.61
         21.27  21.27  21.27  22.69  22.69  22.69  30.97  30.97  30.97  33.81
         33.81  35.13  36.40  36.40  36.40  65.69  65.69  65.69  70.97  70.97
         70.97  73.88 112.44 112.44
  22  1 -16.97 -13.65 -13.65 -13.65 -12.48 -12.48 -12.48  -8.46  -8.46  -8.46
         -8.11  -8.11  -8.11  -6.21  -5.52  -5.52  -4.47  -4.47  -4.47  -3.93
         -3.93  -3.93  -2.83  -2.63  -2.63  -1.51   2.32   2.32   3.56   3.56
          3.56   3.63   3.63   3.63   4.49   5.55   5.55   5.55   5.80   5.80
          5.80   6.61   7.11   7.11   7.11   7.35   7.35   7.39   7.39   7.39
          8.56   8.56   8.56   9.23   9.23   9.23  13.92  13.92  13.92  15.19
         15.19  15.19  16.15  16.15  16.15  17.14  17.14  17.14  17.37  18.38
         18.38  18.38  18.64  18.64  18.73  18.73  18.73  19.76  20.51  20.51
         21.13  21.13  21.13  22.38  22.38  22.38  31.11  31.12  31.12  34.08
         34.08  34.50  35.45  35.45  35.45  66.55  66.55  66.55  70.06  70.06
         70.06  80.54 122.35 122.35
  23  1 -17.00 -13.52 -13.52 -13.52 -12.63 -12.63 -12.63  -8.35  -8.35  -8.34
         -8.14  -8.14  -8.14  -5.89  -5.46  -5.46  -4.51  -4.51  -4.51  -4.16
         -4.16  -4.16  -2.79  -2.71  -2.71  -1.80   2.42   2.42   3.86   3.86
          3.86   3.92   3.92   3.92   4.60   5.69   5.69   5.69   5.89   5.89
          5.89   6.67   7.11   7.11   7.11   7.11   7.11   7.40   7.40   7.40
          8.15   8.15   8.15   8.76   8.76   8.76  14.41  14.41  14.41  15.25
         15.25  15.25  16.23  16.23  16.23  16.99  17.09  17.09  17.09  18.26
         18.26  18.26  18.43  18.43  18.43  18.99  18.99  19.77  20.38  20.38
         21.07  21.07  21.07  22.10  22.10  22.10  31.42  31.42  31.42  34.17
         34.29  34.29  34.66  34.66  34.66  67.25  67.25  67.25  69.29  69.29
         69.30  90.53 132.01 132.01
  24  1 -17.02 -13.39 -13.39 -13.39 -12.79 -12.79 -12.79  -8.25  -8.25  -8.25
         -8.16  -8.16  -8.16  -5.62  -5.41  -5.41  -4.53  -4.53  -4.53  -4.33
         -4.33  -4.33  -2.79  -2.78  -2.78  -2.03   2.50   2.50   4.10   4.10
          4.10   4.13   4.13   4.13   4.85   5.86   5.86   5.86   5.98   5.98
          5.98   6.72   6.93   6.93   7.11   7.11   7.11   7.44   7.44   7.44
          7.77   7.77   7.77   8.34   8.34   8.34  14.86  14.86  14.86  15.31
         15.31  15.31  16.29  16.29  16.29  16.65  16.95  16.95  16.95  18.13
         18.13  18.13  18.21  18.21  18.21  19.30  19.30  19.86  20.24  20.24
         21.11  21.11  21.11  21.84  21.84  21.84  31.83  31.83  31.83  33.98
         33.98  33.98  34.21  34.45  34.45  67.77  67.77  67.77  68.71  68.71
         68.71 106.82 140.25 140.25
  25  1 -17.03 -13.24 -13.24 -13.24 -12.94 -12.94 -12.94  -8.20  -8.20  -8.19
         -8.18  -8.17  -8.17  -5.43  -5.38  -5.38  -4.54  -4.53  -4.53  -4.45
         -4.45  -4.45  -2.82  -2.82  -2.81  -2.17   2.55   2.55   4.25   4.25
          4.26   4.26   4.27   4.27   5.16   6.02   6.02   6.02   6.06   6.06
          6.06   6.75   6.81   6.81   7.14   7.14   7.14   7.45   7.45   7.45
          7.53   7.53   7.53   7.98   7.98   7.98  15.22  15.22  15.22  15.35
         15.35  15.35  16.36  16.36  16.36  16.42  16.72  16.72  16.72  18.04
         18.04  18.04  18.07  18.07  18.07  19.56  19.56  19.94  20.08  20.08
         21.23  21.23  21.23  21.61  21.61  21.61  32.30  32.30  32.30  33.38
         33.38  33.38  34.49  34.54  34.54  68.08  68.08  68.09  68.34  68.36
         68.36 131.11 145.85 145.85
  26  1 -17.03 -13.10 -13.10 -13.10 -13.09 -13.09 -13.09  -8.18  -8.18  -8.18
         -8.17  -8.17  -8.17  -5.37  -5.37  -5.36  -4.52  -4.52  -4.52  -4.51
         -4.51  -4.50  -2.83  -2.83  -2.83  -2.21   2.57   2.57   4.30   4.30
          4.31   4.31   4.31   4.31   5.32   6.08   6.08   6.09   6.09   6.10
          6.10   6.77   6.77   6.77   7.23   7.23   7.23   7.24   7.24   7.24
          7.70   7.70   7.70   7.71   7.71   7.71  15.36  15.36  15.37  15.37
         15.38  15.38  16.34  16.49  16.49  16.49  16.50  16.50  16.51  18.01
         18.01  18.01  18.02  18.02  18.02  19.71  19.71  19.96  19.96  19.97
         21.39  21.39  21.39  21.41  21.41  21.41  32.80  32.81  32.81  32.84
         32.84  32.85  34.57  34.57  34.66  68.14  68.14  68.20  68.22  68.28
         68.28 146.96 147.83 147.83
  27  1 -17.03 -13.34 -13.10 -13.10 -13.09 -13.09 -12.84  -8.19  -8.19  -8.19
         -8.19  -8.17  -8.17  -5.41  -5.40  -5.39  -4.57  -4.49  -4.49  -4.48
         -4.48  -4.44  -2.84  -2.80  -2.80  -2.17   2.53   2.58   4.24   4.24
          4.27   4.27   4.28   4.28   5.17   5.98   5.99   6.00   6.00   6.16
          6.16   6.77   6.78   6.82   6.98   7.31   7.31   7.31   7.31   7.35
          7.47   7.77   7.77   7.78   7.78   8.08  15.27  15.27  15.29  15.30
         15.31  15.31  16.17  16.41  16.57  16.57  16.58  16.58  16.79  18.00
         18.00  18.01  18.01  18.13  18.13  19.51  19.68  19.92  19.93  20.19
         21.12  21.40  21.40  21.41  21.41  21.76  31.99  32.81  32.81  32.84
         32.84  33.76  34.32  34.38  34.88  68.11  68.12  68.23  68.24  68.31
         68.31 136.67 142.69 143.21
  28  1 -17.02 -13.58 -13.09 -13.09 -13.09 -13.09 -12.58  -8.23  -8.23  -8.23
         -8.23  -8.16  -8.16  -5.52  -5.46  -5.45  -4.62  -4.42  -4.42  -4.40
         -4.40  -4.36  -2.87  -2.72  -2.72  -2.07   2.42   2.59   4.07   4.07
          4.16   4.16   4.17   4.17   4.85   5.78   5.78   5.79   5.79   6.34
          6.34   6.71   6.78   6.79   6.96   7.00   7.40   7.40   7.41   7.41
          7.67   8.02   8.02   8.03   8.03   8.47  15.01  15.01  15.12  15.12
         15.13  15.13  15.83  16.63  16.76  16.76  16.77  16.77  17.01  17.99
         17.99  18.00  18.00  18.43  18.43  19.25  19.58  19.78  19.79  20.51
         20.96  21.41  21.41  21.42  21.42  22.18  31.25  32.82  32.82  32.85
         32.85  33.62  33.67  34.83  35.76  67.94  67.94  68.36  68.37  68.44
         68.45 116.19 131.53 131.95
  29  1 -17.00 -13.82 -13.09 -13.09 -13.08 -13.08 -12.32  -8.30  -8.30  -8.29
         -8.29  -8.14  -8.13  -5.68  -5.56  -5.55  -4.65  -4.29  -4.29  -4.28
         -4.28  -4.26  -2.93  -2.60  -2.60  -1.91   2.25   2.62   3.84   3.84
          3.96   3.96   3.97   3.97   4.55   5.58   5.58   5.59   5.59   6.41
          6.59   6.59   6.67   6.81   6.81   7.18   7.45   7.45   7.46   7.46
[...]
         76.15  86.82  94.04  95.31
  93  1 -16.06 -15.41 -14.29 -13.96 -12.12 -11.75 -10.35  -9.48  -9.35  -9.18
         -8.18  -7.94  -7.75  -7.51  -7.27  -6.37  -3.21  -3.17  -2.76  -2.11
         -2.00  -1.60  -1.58  -0.84  -0.83  -0.63  -0.37  -0.28   0.62   0.69
          1.26   2.05   2.08   2.08   2.72   3.55   4.03   4.04   4.67   5.69
          5.81   5.85   7.71   7.84   8.34   8.48   9.03   9.40   9.50  10.25
         10.58  11.02  11.11  11.35  11.46  11.78  12.11  12.41  13.04  13.33
         14.04  14.22  14.48  14.51  14.69  15.52  15.87  16.17  16.41  17.05
         17.65  17.76  18.62  18.81  19.43  20.63  21.73  22.28  22.68  23.13
         23.29  23.62  24.60  24.97  26.12  26.35  31.61  36.11  37.50  39.63
         41.43  50.18  52.09  53.56  55.31  64.14  64.42  64.48  66.75  70.89
         76.08  86.80  94.00  95.33
  94  1 -15.86 -15.24 -14.36 -14.36 -12.02 -12.02 -10.99 -10.19  -8.77  -8.77
         -7.78  -7.49  -7.49  -7.19  -6.69  -6.67  -3.32  -3.19  -2.96  -2.96
         -2.08  -1.42  -1.42  -1.28  -1.21  -0.47  -0.24   0.49   0.49   0.69
          0.94   0.94   2.90   2.91   3.29   3.41   5.00   5.11   5.16   5.48
          5.50   5.50   6.50   6.50   7.29   8.33   8.94   9.17   9.17   9.21
          9.49   9.49  11.11  11.43  11.43  11.83  13.15  13.36  13.51  13.51
         13.57  14.60  15.01  15.01  16.08  16.08  16.34  16.45  17.21  17.37
         17.37  17.93  17.93  19.13  19.24  19.24  20.74  21.88  22.00  23.67
         24.47  24.47  25.14  27.02  27.56  27.56  31.82  32.74  35.23  35.23
         41.08  48.90  54.54  54.54  57.65  59.65  63.56  65.48  65.48  68.32
         83.89  87.95  87.95  94.19
  95  1 -15.47 -14.94 -14.94 -14.60 -12.03 -11.64 -11.64 -11.01  -8.32  -7.91
         -7.91  -7.22  -6.97  -6.93  -6.92  -6.39  -3.32  -3.19  -2.86  -2.86
         -2.08  -2.08  -1.77  -1.72  -1.30  -0.94  -0.82  -0.82   1.45   1.45
          2.20   2.41   2.60   3.23   3.59   4.05   4.05   4.42   4.42   4.77
          5.23   7.04   7.04   7.18   7.18   7.82   8.12   8.63   8.94   8.94
          8.99   9.33   9.37  10.10  10.55  10.55  13.86  14.09  14.09  15.07
         15.07  15.13  15.48  15.64  15.79  15.99  16.42  16.42  17.59  18.37
         18.37  18.39  18.93  18.93  19.37  19.66  20.46  20.46  21.10  21.55
         26.85  26.97  26.97  28.36  28.64  32.17  32.17  34.23  38.73  39.69
         39.69  45.84  54.82  54.83  58.45  59.14  60.73  73.08  73.08  78.35
         84.35  84.36  84.92 104.93
  96  1 -15.47 -14.95 -14.94 -14.60 -12.03 -11.64 -11.64 -11.02  -8.32  -7.92
         -7.91  -7.22  -6.96  -6.93  -6.92  -6.38  -3.31  -3.18  -2.87  -2.86
         -2.09  -2.08  -1.77  -1.71  -1.31  -0.94  -0.83  -0.82   1.43   1.44
          2.20   2.41   2.59   3.24   3.60   4.05   4.06   4.42   4.43   4.77
          5.22   7.04   7.06   7.19   7.19   7.82   8.12   8.64   8.94   8.94
          8.99   9.33   9.36  10.09  10.53  10.55  13.85  14.10  14.10  15.06
         15.08  15.12  15.47  15.62  15.78  15.99  16.43  16.45  17.60  18.34
         18.37  18.40  18.93  18.94  19.36  19.68  20.46  20.47  21.10  21.54
         26.86  26.95  26.98  28.38  28.63  32.16  32.18  34.23  38.75  39.66
         39.72  45.85  54.70  54.85  58.51  59.16  60.83  73.12  73.14  78.32
         84.36  84.39  84.90 105.38
  97  1 -15.47 -14.94 -14.94 -14.60 -12.03 -11.64 -11.64 -11.02  -8.33  -7.92
         -7.91  -7.21  -6.97  -6.92  -6.92  -6.39  -3.31  -3.19  -2.86  -2.86
         -2.08  -2.08  -1.77  -1.72  -1.31  -0.94  -0.82  -0.82   1.43   1.43
          2.19   2.41   2.60   3.24   3.60   4.06   4.06   4.43   4.43   4.78
          5.23   7.05   7.05   7.18   7.18   7.82   8.12   8.65   8.95   8.95
          8.99   9.32   9.37  10.08  10.53  10.53  13.84  14.09  14.09  15.06
         15.06  15.13  15.47  15.64  15.79  16.00  16.44  16.44  17.60  18.36
         18.36  18.40  18.93  18.93  19.37  19.67  20.47  20.47  21.11  21.54
         26.84  26.97  26.98  28.39  28.61  32.18  32.18  34.24  38.73  39.71
         39.71  45.81  54.87  54.88  58.49  59.13  60.78  73.12  73.12  78.39
         84.43  84.43  84.89 105.21
  98  1 -15.64 -15.04 -15.04 -14.53 -11.63 -11.01 -11.01 -10.22  -9.28  -8.80
         -8.80  -8.21  -7.09  -7.01  -7.01  -6.32  -3.30  -2.68  -2.42  -2.42
         -1.73  -1.73  -1.39  -1.17  -0.11  -0.11  -0.09   0.08   0.44   0.44
          0.70   1.23   1.73   2.15   2.48   2.74   2.74   4.24   4.24   5.37
          5.77   7.64   7.64   8.18   8.73   8.74   9.38   9.67   9.90  10.02
         10.02  10.70  11.10  11.71  11.71  12.02  12.72  12.86  12.87  12.89
         13.47  13.76  13.76  14.41  14.90  15.13  15.13  15.54  17.40  18.17
         18.17  19.20  19.81  19.94  19.94  20.41  21.51  21.51  21.75  22.31
         25.58  25.59  25.98  25.98  27.61  35.98  35.98  40.35  42.72  42.72
         48.75  52.06  52.07  53.14  57.96  59.58  60.68  68.72  68.72  78.57
         79.07  81.23  81.23  97.31
  99  1 -15.64 -15.04 -15.04 -14.53 -11.63 -11.01 -11.01 -10.22  -9.28  -8.80
         -8.80  -8.22  -7.09  -7.01  -7.01  -6.32  -3.30  -2.69  -2.42  -2.42
         -1.74  -1.74  -1.40  -1.17  -0.10  -0.10  -0.09   0.09   0.45   0.45
          0.71   1.24   1.72   2.15   2.48   2.73   2.73   4.24   4.24   5.37
          5.77   7.64   7.64   8.17   8.73   8.73   9.38   9.68   9.90  10.01
         10.01  10.69  11.08  11.72  11.72  12.03  12.73  12.88  12.88  12.89
         13.48  13.77  13.77  14.41  14.90  15.11  15.11  15.54  17.40  18.17
         18.17  19.19  19.81  19.94  19.94  20.41  21.50  21.50  21.75  22.32
         25.59  25.59  25.98  25.98  27.60  35.98  35.98  40.35  42.67  42.67
         48.73  52.11  52.11  53.12  57.94  59.54  60.75  68.62  68.62  78.58
         79.05  81.20  81.21  97.35
 100  1 -15.47 -14.94 -14.94 -14.60 -12.03 -11.64 -11.64 -11.01  -8.32  -7.91
         -7.91  -7.22  -6.97  -6.93  -6.92  -6.39  -3.32  -3.19  -2.86  -2.86
         -2.08  -2.08  -1.77  -1.72  -1.30  -0.94  -0.82  -0.82   1.45   1.45
          2.20   2.41   2.60   3.23   3.59   4.05   4.05   4.42   4.42   4.77
          5.23   7.04   7.04   7.18   7.18   7.82   8.12   8.63   8.94   8.94
          8.99   9.33   9.37  10.10  10.55  10.55  13.86  14.09  14.09  15.07
         15.07  15.13  15.48  15.64  15.79  15.99  16.42  16.42  17.59  18.37
         18.37  18.39  18.93  18.93  19.37  19.66  20.46  20.46  21.10  21.55
         26.85  26.97  26.97  28.36  28.64  32.17  32.17  34.23  38.73  39.69
         39.69  45.84  54.82  54.83  58.45  59.14  60.73  73.08  73.08  78.35
         84.35  84.36  84.92 104.93
 101  1 -15.17 -14.82 -14.82 -14.82 -12.11 -12.11 -12.11 -11.72  -7.16  -7.16
         -7.16  -6.76  -6.76  -6.76  -6.54  -6.54  -3.94  -3.46  -3.46  -3.46
         -2.01  -2.01  -2.01  -1.90  -1.90  -1.60  -1.60  -1.60   2.94   2.94
          2.94   3.38   4.15   4.15   4.29   4.29   4.29   5.28   5.45   5.45
          5.45   6.24   6.24   6.24   6.32   6.32   6.32   7.74   7.74   8.03
          8.03   8.03   8.74   8.74   8.74   8.85  15.88  15.94  15.94  15.95
         16.43  16.43  16.63  16.63  16.63  17.24  17.24  17.24  18.01  18.01
         18.01  18.98  18.98  18.98  19.40  19.40  19.40  19.95  19.95  21.12
         27.97  27.97  27.97  29.30  29.30  29.65  29.65  29.65  49.12  49.12
         49.12  53.79  62.82  62.83  62.83  67.18  67.18  67.19  77.88  77.88
         92.25  92.25  92.26  98.40
 102  1 -15.17 -14.83 -14.82 -14.81 -12.11 -12.11 -12.10 -11.72  -7.17  -7.17
         -7.16  -6.76  -6.76  -6.76  -6.54  -6.54  -3.94  -3.47  -3.46  -3.46
         -2.01  -2.01  -2.01  -1.90  -1.89  -1.61  -1.61  -1.60   2.93   2.93
          2.94   3.39   4.14   4.15   4.29   4.29   4.30   5.28   5.46   5.46
          5.46   6.24   6.25   6.25   6.32   6.33   6.33   7.73   7.74   8.01
          8.02   8.03   8.73   8.73   8.74   8.84  15.87  15.94  15.94  15.95
         16.41  16.43  16.62  16.62  16.64  17.25  17.25  17.26  18.01  18.01
         18.02  18.97  18.97  18.98  19.39  19.41  19.42  19.95  19.96  21.10
         27.96  27.98  27.98  29.31  29.32  29.62  29.64  29.65  49.04  49.15
         49.16  53.80  62.71  62.92  62.96  67.08  67.12  67.21  78.11  78.31
         92.20  92.28  92.37  98.51
 103  1 -15.47 -14.95 -14.94 -14.60 -12.03 -11.64 -11.64 -11.02  -8.32  -7.92
         -7.91  -7.22  -6.96  -6.93  -6.92  -6.38  -3.31  -3.18  -2.87  -2.86
         -2.09  -2.08  -1.77  -1.71  -1.31  -0.94  -0.83  -0.82   1.43   1.44
          2.20   2.41   2.59   3.24   3.60   4.05   4.06   4.42   4.43   4.77
          5.22   7.04   7.06   7.19   7.19   7.82   8.12   8.64   8.94   8.94
          8.99   9.33   9.36  10.09  10.53  10.55  13.85  14.10  14.10  15.06
         15.08  15.12  15.47  15.62  15.78  15.99  16.43  16.45  17.60  18.34
         18.37  18.40  18.93  18.94  19.36  19.68  20.46  20.47  21.10  21.54
         26.86  26.95  26.98  28.38  28.63  32.16  32.18  34.23  38.75  39.66
         39.72  45.85  54.70  54.85  58.51  59.16  60.83  73.12  73.14  78.32
         84.36  84.39  84.90 105.38
 104  1 -15.64 -15.04 -15.03 -14.53 -11.63 -11.01 -11.01 -10.22  -9.28  -8.80
         -8.80  -8.21  -7.08  -7.03  -7.01  -6.32  -3.30  -2.68  -2.44  -2.42
         -1.74  -1.73  -1.40  -1.16  -0.11  -0.10  -0.09   0.09   0.44   0.44
          0.71   1.24   1.73   2.15   2.47   2.73   2.74   4.25   4.26   5.36
          5.76   7.66   7.66   8.18   8.72   8.73   9.37   9.68   9.90  10.01
         10.02  10.69  11.09  11.72  11.72  12.03  12.72  12.87  12.88  12.89
         13.47  13.76  13.78  14.39  14.90  15.12  15.14  15.53  17.39  18.15
         18.18  19.21  19.82  19.93  19.94  20.41  21.50  21.51  21.76  22.31
         25.59  25.60  25.97  25.98  27.61  35.96  35.99  40.38  42.65  42.70
         48.81  51.99  52.04  53.10  58.03  59.56  60.69  68.67  68.75  78.57
         79.02  81.21  81.29  97.31
 105  1 -15.64 -15.04 -15.03 -14.53 -11.63 -11.01 -11.01 -10.22  -9.28  -8.80
         -8.80  -8.21  -7.08  -7.03  -7.01  -6.32  -3.30  -2.68  -2.44  -2.42
         -1.74  -1.73  -1.40  -1.16  -0.11  -0.10  -0.09   0.09   0.44   0.44
          0.71   1.24   1.73   2.15   2.47   2.73   2.74   4.25   4.26   5.36
          5.76   7.66   7.66   8.18   8.72   8.73   9.37   9.68   9.90  10.01
         10.02  10.69  11.09  11.72  11.72  12.03  12.72  12.87  12.88  12.89
         13.47  13.76  13.78  14.39  14.90  15.12  15.14  15.53  17.39  18.15
         18.18  19.21  19.82  19.93  19.94  20.41  21.50  21.51  21.76  22.31
         25.59  25.60  25.97  25.98  27.61  35.96  35.99  40.38  42.65  42.70
         48.81  51.99  52.04  53.10  58.03  59.56  60.69  68.67  68.75  78.57
         79.02  81.21  81.29  97.31
 106  1 -15.47 -14.95 -14.94 -14.60 -12.03 -11.64 -11.64 -11.02  -8.32  -7.92
         -7.91  -7.22  -6.96  -6.93  -6.92  -6.38  -3.31  -3.18  -2.87  -2.86
         -2.09  -2.08  -1.77  -1.71  -1.31  -0.94  -0.83  -0.82   1.43   1.44
          2.20   2.41   2.59   3.24   3.60   4.05   4.06   4.42   4.43   4.77
          5.22   7.04   7.06   7.19   7.19   7.82   8.12   8.64   8.94   8.94
          8.99   9.33   9.36  10.09  10.53  10.55  13.85  14.10  14.10  15.06
         15.08  15.12  15.47  15.62  15.78  15.99  16.43  16.45  17.60  18.34
         18.37  18.40  18.93  18.94  19.36  19.68  20.46  20.47  21.10  21.54
         26.86  26.95  26.98  28.38  28.63  32.16  32.18  34.23  38.75  39.66
         39.72  45.85  54.70  54.85  58.51  59.16  60.83  73.12  73.14  78.32
         84.36  84.39  84.90 105.38
 107  1 -15.17 -14.83 -14.82 -14.81 -12.11 -12.11 -12.10 -11.72  -7.17  -7.17
         -7.16  -6.76  -6.76  -6.76  -6.54  -6.54  -3.94  -3.47  -3.46  -3.46
         -2.01  -2.01  -2.01  -1.90  -1.89  -1.61  -1.61  -1.60   2.93   2.93
          2.94   3.39   4.14   4.15   4.29   4.29   4.30   5.28   5.46   5.46
          5.46   6.24   6.25   6.25   6.32   6.33   6.33   7.73   7.74   8.01
          8.02   8.03   8.73   8.73   8.74   8.84  15.87  15.94  15.94  15.95
         16.41  16.43  16.62  16.62  16.64  17.25  17.25  17.26  18.01  18.01
         18.02  18.97  18.97  18.98  19.39  19.41  19.42  19.95  19.96  21.10
         27.96  27.98  27.98  29.31  29.32  29.62  29.64  29.65  49.04  49.15
         49.16  53.80  62.71  62.92  62.96  67.08  67.12  67.21  78.11  78.31
         92.20  92.28  92.37  98.51
 108  1 -15.17 -14.83 -14.82 -14.81 -12.11 -12.11 -12.10 -11.72  -7.17  -7.17
         -7.16  -6.76  -6.76  -6.76  -6.54  -6.54  -3.94  -3.47  -3.46  -3.46
         -2.01  -2.01  -2.01  -1.90  -1.89  -1.61  -1.61  -1.60   2.93   2.93
          2.94   3.39   4.14   4.15   4.29   4.29   4.30   5.28   5.46   5.46
          5.46   6.24   6.25   6.25   6.32   6.33   6.33   7.73   7.74   8.01
          8.02   8.03   8.73   8.73   8.74   8.84  15.87  15.94  15.94  15.95
         16.41  16.43  16.62  16.62  16.64  17.25  17.25  17.26  18.01  18.01
         18.02  18.97  18.97  18.98  19.39  19.41  19.42  19.95  19.96  21.10
         27.96  27.98  27.98  29.31  29.32  29.62  29.64  29.65  49.04  49.15
         49.16  53.80  62.71  62.92  62.96  67.08  67.12  67.21  78.11  78.31
         92.20  92.28  92.37  98.51
siesta: Fermi energy =      -4.998008 eV

siesta: Program's energy decomposition (eV):
siesta: Ebs     =      -331.647825
siesta: Eions   =      1510.441798
siesta: Ena     =       471.323749
siesta: Ekin    =       319.277986
siesta: Enl     =       127.099627
siesta: DEna    =         6.599083
siesta: DUscf   =         1.519521
siesta: DUext   =         0.000000
siesta: Exc     =      -446.052183
siesta: eta*DQ  =         0.000000
siesta: Emadel  =         0.000000
siesta: Emeta   =         0.000000
siesta: Emolmec =         0.000000
siesta: Ekinion =         0.000000
siesta: Eharris =     -1030.674484
siesta: Etot    =     -1030.674016
siesta: FreeEng =     -1030.674016

siesta: Final energy (eV):
siesta:  Band Struct. =    -331.647825
siesta:       Kinetic =     319.277986
siesta:       Hartree =      59.914981
siesta:    Ext. field =       0.000000
siesta:   Exch.-corr. =    -446.052183
siesta:  Ion-electron =    -421.907921
siesta:       Ion-ion =    -541.906878
siesta:       Ekinion =       0.000000
siesta:         Total =   -1030.674016

siesta: Stress tensor (static) (eV/Ang**3):
siesta:    -0.000115   -0.000081   -0.000081
siesta:    -0.000081   -0.000115   -0.000081
siesta:    -0.000081   -0.000081   -0.000115

siesta: Constrained stress tensor (static) (eV/Ang**3):
siesta:    -0.000115   -0.000081   -0.000081
siesta:    -0.000081   -0.000115   -0.000081
siesta:    -0.000081   -0.000081   -0.000115

siesta: Cell volume =        168.129926 Ang**3

siesta: Pressure (static):
siesta:                Solid            Molecule  Units
siesta:           0.00000125         -0.00000896  Ry/Bohr**3
siesta:           0.00011489         -0.00082247  eV/Ang**3
siesta:           0.18408061         -1.31775328  kBar
(Free)E+ p_basis*V_orbitals  =       -1021.736285
(Free)Eharris+ p_basis*V_orbitals  =       -1021.736882

* Maximum dynamic memory allocated : Node    0 =    83 MB

* Maximum memory occured during init_pulay_arrrays            

timer: CPU execution times:
timer:  Routine       Calls   Time/call    Tot.time        %
timer:  siesta            1     648.905     648.905   100.00
timer:  Setup             1       0.120       0.120     0.02
timer:  bands             3       0.508       1.524     0.23
timer:  writewave         3       0.007       0.020     0.00
timer:  KSV_init          1       0.000       0.000     0.00
timer:  IterMD            8      80.894     647.148    99.73
timer:  hsparse           8       0.153       1.220     0.19
timer:  overlap           8       0.131       1.048     0.16
timer:  IterSCF          37      14.172     524.361    80.81
timer:  kinefsm          16       0.125       2.004     0.31
timer:  nlefsm           16       3.416      54.659     8.42
timer:  DHSCF            45       8.342     375.408    57.85
timer:  DHSCF1            8       0.048       0.384     0.06
timer:  DHSCF2            8       2.180      17.441     2.69
timer:  REORD           286       0.000       0.020     0.00
timer:  POISON           53       0.005       0.244     0.04
timer:  DHSCF3           45       7.262     326.768    50.36
timer:  rhoofd           45       3.308     148.841    22.94
timer:  cellXC           45       0.121       5.456     0.84
timer:  vmat             45       3.827     172.199    26.54
timer:  MolMec           16       0.000       0.000     0.00
timer:  diagon           37       5.685     210.357    32.42
timer:  c-eigval       4097       0.015      62.460     9.63
timer:  c-buildHS      4097       0.011      44.015     6.78
timer:  cdiag          8094       0.007      56.239     8.67
timer:  cdiag1         8094       0.001       4.200     0.65
timer:  cdiag2         8094       0.002      14.738     2.27
timer:  cdiag3         8094       0.004      35.981     5.54
timer:  cdiag4         8094       0.000       1.080     0.17
timer:  c-eigvec       3997       0.020      80.869    12.46
timer:  c-buildD       3996       0.017      68.257    10.52
timer:  DHSCF4            8       3.851      30.806     4.75
timer:  dfscf             8       3.612      28.894     4.45
timer:  overfsm           8       0.117       0.936     0.14
timer:  optical           1       0.000       0.000     0.00
  

elaps: ELAPSED times:
elaps:  Routine       Calls   Time/call    Tot.time        %
elaps:  siesta            1     651.575     651.575   100.00
elaps:  Setup             1       0.122       0.122     0.02
elaps:  bands             3       0.510       1.529     0.23
elaps:  writewave         3       0.006       0.019     0.00
elaps:  KSV_init          1       0.000       0.000     0.00
elaps:  IterMD            8      81.226     649.811    99.73
elaps:  hsparse           8       0.154       1.231     0.19
elaps:  overlap           8       0.132       1.056     0.16
elaps:  IterSCF          37      14.229     526.485    80.80
elaps:  kinefsm          16       0.126       2.016     0.31
elaps:  nlefsm           16       3.427      54.829     8.41
elaps:  DHSCF            45       8.378     376.994    57.86
elaps:  DHSCF1            8       0.047       0.380     0.06
elaps:  DHSCF2            8       2.188      17.503     2.69
elaps:  REORD           286       0.000       0.026     0.00
elaps:  POISON           53       0.005       0.258     0.04
elaps:  DHSCF3           45       7.292     328.158    50.36
elaps:  rhoofd           45       3.320     149.407    22.93
elaps:  cellXC           45       0.122       5.470     0.84
elaps:  vmat             45       3.844     172.988    26.55
elaps:  MolMec           16       0.000       0.000     0.00
elaps:  diagon           37       5.709     211.237    32.42
elaps:  c-eigval       4097       0.015      62.746     9.63
elaps:  c-buildHS      4097       0.011      44.260     6.79
elaps:  cdiag          8094       0.007      56.403     8.66
elaps:  cdiag1         8094       0.001       4.170     0.64
elaps:  cdiag2         8094       0.002      14.748     2.26
elaps:  cdiag3         8094       0.004      36.285     5.57
elaps:  cdiag4         8094       0.000       1.005     0.15
elaps:  c-eigvec       3997       0.020      81.205    12.46
elaps:  c-buildD       3996       0.017      68.533    10.52
elaps:  DHSCF4            8       3.867      30.937     4.75
elaps:  dfscf             8       3.628      29.020     4.45
elaps:  overfsm           8       0.117       0.937     0.14
elaps:  optical           1       0.000       0.000     0.00
  
>> End of run:   9-MAY-2013  21:12:26

=====================================================================================
=   BAD TERMINATION OF ONE OF YOUR APPLICATION PROCESSES
=   EXIT CODE: 134
=   CLEANING UP REMAINING PROCESSES
=   YOU CAN IGNORE THE BELOW CLEANUP MESSAGES
=====================================================================================
APPLICATION TERMINATED WITH THE EXIT STRING: Aborted (signal 6)
