Siesta Version:                                        siesta-3.2
Architecture  : x86_64-unknown-linux-gnu--unknown
Compiler flags: f95 -g -O2
SERIAL version
Siesta Version:                                        siesta-3.2
Architecture  : x86_64-unknown-linux-gnu--unknown
Compiler flags: f95 -g -O2
SERIAL version

* Running in serial mode

* Running in serial mode
>> Start of run:  10-MAY-2013   1:09:32
>> Start of run:  10-MAY-2013   1:09:32

                           ***********************       
                           *  WELCOME TO SIESTA  *       
                           ***********************       

                           ***********************       
                           *  WELCOME TO SIESTA  *       
                           ***********************       

reinit: Reading from standard input

reinit: Reading from standard input
************************** Dump of input data file ****************************
************************** Dump of input data file ****************************
# FDF for silicon
SystemName             silicon          # Descriptive name of the system
SystemLabel            si          # Short name for naming files
NumberOfAtoms 8
NumberOfSpecies 1
%block ChemicalSpeciesLabel
1 14 Si
%endblock ChemicalSpeciesLabel
LatticeConstant  5.15 Ang
##Basis set Definition##
PAO.BasisType          split        # Type of PAO basis set
PAO.EnergyShift        50 meV
PAO.BasisSize          DZP          # (DZP) Double-z + polarization
#%block LatticeVectors
#0.500 0.500 0.000
#0.500 0.000 0.500
#0.000 0.500 0.500
#%endblock LatticeVectors
AtomicCoordinatesFormat NotScaledCartesianAng
%block AtomicCoordinatesAndAtomicSpecies
	0.00000000	0.00000000	0.00000000  1 Si  1
	1.36000000	1.36000000	1.36000000  1 Si  2
	2.72000000	2.72000000	0.00000000  1 Si  3
	4.08000000	4.08000000	1.36000000  1 Si  4
	2.72000000	0.00000000	2.72000000  1 Si  5
	4.08000000	1.36000000	4.08000000  1 Si  6
	0.00000000	2.72000000	2.72000000  1 Si  7
	1.36000000	4.08000000	4.08000000  1 Si  8
%endblock AtomicCoordinatesAndAtomicSpecies
MeshCutoff 100.0 Ry # 100, 120, 180, 260
kgrid_cutoff 30.0 Bohr # 30, 35, 40, 45
DM.Mixingweight  0.3
DM.NumberPulay    3
DM.Tolerance      1.d-3
DM.UseSaveDM      true
ElectronicTemperature 25 meV
SolutionMethod    diagon
XC.functional     LDA	    # Local Density Approximation
XC.authors        CA           # Ceperley-Alder
SpinPolarized     false
MD.TypeOfRun           CG           # Type of dynamics:
MD.VariableCell        true
MD.NumCGsteps          100          # Number of CG steps for coordinate optimization
MD.MaxCGDispl          0.2 Bohr     # Maximum atomic displacement
                                    #   in one CG step (Bohr)
MD.MaxForceTol         0.04 eV/Ang  # Tolerance in the maximum
                                    #   atomic force (Ry/Bohr)
				
##Output Specification##
WriteMDhistory         true         # Trajectory information
WriteCoorStep          true
WriteCoorXmol          true
WriteMDXmol            true
WriteEigenvalues true
WriteKbands      true
WriteBands       true
WriteWaveFunctions true
WriteMullikenPoP   1
%block BandLines
1	1.000	1.000 1.000 L
25	0.000	0.000	0.000 \Gamma
30	2.000	0.000	0.000 X
10	2.000	0.500	0.500 U
35	0.000	0.000	0.000 \Gamma
%endblock BandLines
%block WaveFuncKPoints
0.0 0.0 0.0 from 1 to 50 # > 16 = 4/2*8 (Valenzelektronen/2, Atomzahl ...)
%endblock WaveFuncKpoints
************************** End of input data file *****************************

reinit: -----------------------------------------------------------------------
reinit: System Name: silicon
reinit: -----------------------------------------------------------------------
reinit: System Label: si                                                          
reinit: -----------------------------------------------------------------------
************************** End of input data file *****************************

reinit: -----------------------------------------------------------------------
reinit: System Name: 
reinit: -----------------------------------------------------------------------
reinit: System Label: siesta                                                      
reinit: -----------------------------------------------------------------------

initatom: Reading input for the pseudopotentials and atomic orbitals ----------
 Species number:            1  Label: Si Atomic number:          14
Ground state valence configuration:   3s02  3p02
Reading pseudopotential information in formatted form from Si.psf

Valence configuration for pseudopotential generation:
3s( 2.00) rc: 1.75
3p( 2.00) rc: 1.94
3d( 0.00) rc: 2.09
4f( 0.00) rc: 2.09

initatom: Reading input for the pseudopotentials and atomic orbitals ----------
 Species number:            1  Label: Si Atomic number:          14
Ground state valence configuration:   3s02  3p02
Reading pseudopotential information in formatted form from Si.psf

Valence configuration for pseudopotential generation:
3s( 2.00) rc: 1.75
3p( 2.00) rc: 1.94
3d( 0.00) rc: 2.09
4f( 0.00) rc: 2.09
For Si, standard SIESTA heuristics set lmxkb to 3
 (one more than the basis l, including polarization orbitals).
Use PS.lmax or PS.KBprojectors blocks to override.

<basis_specs>
===============================================================================
Si                   Z=  14    Mass=  28.090        Charge= 0.17977+309
For Si, standard SIESTA heuristics set lmxkb to 3
 (one more than the basis l, including polarization orbitals).
Use PS.lmax or PS.KBprojectors blocks to override.
Lmxo=1 Lmxkb= 3    BasisType=split      Semic=F
L=0  Nsemic=0  Cnfigmx=3
          n=1  nzeta=2  polorb=0
            splnorm:   0.15000    
               vcte:    0.0000    
               rinn:    0.0000    
                rcs:    0.0000      0.0000    
            lambdas:    1.0000      1.0000    
L=1  Nsemic=0  Cnfigmx=3
          n=1  nzeta=2  polorb=1
            splnorm:   0.15000    
               vcte:    0.0000    
               rinn:    0.0000    
                rcs:    0.0000      0.0000    
            lambdas:    1.0000      1.0000    
-------------------------------------------------------------------------------
L=0  Nkbl=1  erefs: 0.17977+309
L=1  Nkbl=1  erefs: 0.17977+309
L=2  Nkbl=1  erefs: 0.17977+309
L=3  Nkbl=1  erefs: 0.17977+309
===============================================================================
</basis_specs>

atom: Called for Si                    (Z =  14)

<basis_specs>

read_vps: Pseudopotential generation method:
read_vps: ATM3      Troullier-Martins                       
===============================================================================
Total valence charge:    4.00000
Si                   Z=  14    Mass=  28.090        Charge= 0.17977+309
Lmxo=1 Lmxkb= 3    BasisType=split      Semic=F
L=0  Nsemic=0  Cnfigmx=3
          n=1  nzeta=2  polorb=0
            splnorm:   0.15000    
               vcte:    0.0000    
               rinn:    0.0000    
                rcs:    0.0000      0.0000    
            lambdas:    1.0000      1.0000    

L=1  Nsemic=0  Cnfigmx=3
          n=1  nzeta=2  polorb=1
            splnorm:   0.15000    
               vcte:    0.0000    
               rinn:    0.0000    
                rcs:    0.0000      0.0000    
            lambdas:    1.0000      1.0000    
-------------------------------------------------------------------------------
xc_check: Exchange-correlation functional:
xc_check: Ceperley-Alder
L=0  Nkbl=1  erefs: 0.17977+309
L=1  Nkbl=1  erefs: 0.17977+309
L=2  Nkbl=1  erefs: 0.17977+309
L=3  Nkbl=1  erefs: 0.17977+309
===============================================================================
</basis_specs>

atom: Called for Si                    (Z =  14)

read_vps: Pseudopotential generation method:
read_vps: ATM3      Troullier-Martins                       
Total valence charge:    4.00000

xc_check: Exchange-correlation functional:
xc_check: Ceperley-Alder
V l=0 = -2*Zval/r beyond r=  2.5494
V l=1 = -2*Zval/r beyond r=  2.5494
V l=2 = -2*Zval/r beyond r=  2.5494
V l=3 = -2*Zval/r beyond r=  2.5494
All V_l potentials equal beyond r=  2.0613
This should be close to max(r_c) in ps generation
All pots = -2*Zval/r beyond r=  2.5494

VLOCAL1: 99.0% of the norm of Vloc inside     10.216 Ry
VLOCAL1: 99.9% of the norm of Vloc inside     23.282 Ry
atom: Maximum radius for 4*pi*r*r*local-pseudopot. charge    2.45560
V l=0 = -2*Zval/r beyond r=  2.5494
V l=1 = -2*Zval/r beyond r=  2.5494
V l=2 = -2*Zval/r beyond r=  2.5494
V l=3 = -2*Zval/r beyond r=  2.5494
All V_l potentials equal beyond r=  2.0613
This should be close to max(r_c) in ps generation
All pots = -2*Zval/r beyond r=  2.5494

VLOCAL1: 99.0% of the norm of Vloc inside     10.216 Ry
VLOCAL1: 99.9% of the norm of Vloc inside     23.282 Ry
atom: Maximum radius for r*vlocal+2*Zval:    2.14012
atom: Maximum radius for 4*pi*r*r*local-pseudopot. charge    2.45560
atom: Maximum radius for r*vlocal+2*Zval:    2.14012
GHOST: No ghost state for L =  0
GHOST: No ghost state for L =  0
GHOST: No ghost state for L =  1
GHOST: No ghost state for L =  1
GHOST: No ghost state for L =  2
GHOST: No ghost state for L =  2
GHOST: No ghost state for L =  3

KBgen: Kleinman-Bylander projectors: 
   l= 0   rc=  2.782581   el= -0.796617   Ekb=  4.840502   kbcos=  0.288423
   l= 1   rc=  2.888916   el= -0.307040   Ekb=  1.512733   kbcos=  0.296968
   l= 2   rc=  2.962054   el=  0.002313   Ekb= -2.156507   kbcos= -0.061834
   l= 3   rc=  3.192765   el=  0.003402   Ekb= -0.600958   kbcos= -0.007408

KBgen: Total number of  Kleinman-Bylander projectors:   16
atom: -------------------------------------------------------------------------

atom: SANKEY-TYPE ORBITALS:
atom: Selected multiple-zeta basis: split     
GHOST: No ghost state for L =  3

KBgen: Kleinman-Bylander projectors: 
   l= 0   rc=  2.782581   el= -0.796617   Ekb=  4.840502   kbcos=  0.288423

SPLIT: Orbitals with angular momentum L= 0

SPLIT: Basis orbitals for state 3s
   l= 1   rc=  2.888916   el= -0.307040   Ekb=  1.512733   kbcos=  0.296968
   l= 2   rc=  2.962054   el=  0.002313   Ekb= -2.156507   kbcos= -0.061834
   l= 3   rc=  3.192765   el=  0.003402   Ekb= -0.600958   kbcos= -0.007408

KBgen: Total number of  Kleinman-Bylander projectors:   16
atom: -------------------------------------------------------------------------

atom: SANKEY-TYPE ORBITALS:
atom: Selected multiple-zeta basis: split     

SPLIT: PAO cut-off radius determined from an
SPLIT: energy shift=  0.003675 Ry

SPLIT: Orbitals with angular momentum L= 0

SPLIT: Basis orbitals for state 3s

SPLIT: PAO cut-off radius determined from an
SPLIT: energy shift=  0.003675 Ry

   izeta = 1
                 lambda =    1.000000
                     rc =    6.116033
                 energy =   -0.793486
                kinetic =    0.528761
    potential(screened) =   -1.322246
       potential(ionic) =   -3.766038

   izeta = 1
                 lambda =    1.000000
                     rc =    6.116033
                 energy =   -0.793486
                kinetic =    0.528761
    potential(screened) =   -1.322246
       potential(ionic) =   -3.766038

   izeta = 2
                 rmatch =    4.530823
              splitnorm =    0.150000
                 energy =   -0.697320
                kinetic =    0.853435
    potential(screened) =   -1.550756
       potential(ionic) =   -4.120809

   izeta = 2
                 rmatch =    4.530823
              splitnorm =    0.150000
                 energy =   -0.697320
                kinetic =    0.853435
    potential(screened) =   -1.550756
       potential(ionic) =   -4.120809

SPLIT: Orbitals with angular momentum L= 1

SPLIT: Basis orbitals for state 3p

SPLIT: PAO cut-off radius determined from an
SPLIT: energy shift=  0.003675 Ry

SPLIT: Orbitals with angular momentum L= 1

SPLIT: Basis orbitals for state 3p

SPLIT: PAO cut-off radius determined from an
SPLIT: energy shift=  0.003675 Ry

   izeta = 1
                 lambda =    1.000000
                     rc =    7.853192
                 energy =   -0.303674
                kinetic =    0.798475
    potential(screened) =   -1.102149
       potential(ionic) =   -3.307324

   izeta = 1
                 lambda =    1.000000
                     rc =    7.853192
                 energy =   -0.303674
                kinetic =    0.798475
    potential(screened) =   -1.102149
       potential(ionic) =   -3.307324

   izeta = 2
                 rmatch =    5.397360
              splitnorm =    0.150000
                 energy =   -0.229357
                kinetic =    1.170483
    potential(screened) =   -1.399841
       potential(ionic) =   -3.814095

   izeta = 2
                 rmatch =    5.397360
              splitnorm =    0.150000
                 energy =   -0.229357
                kinetic =    1.170483
    potential(screened) =   -1.399841
       potential(ionic) =   -3.814095

POLgen: Perturbative polarization orbital with L=  2

POLgen: Polarization orbital for state 3p

POLgen: Perturbative polarization orbital with L=  2

POLgen: Polarization orbital for state 3p

   izeta = 1
                     rc =    7.853192
                 energy =    0.331669
                kinetic =    1.088595
    potential(screened) =   -0.756926
       potential(ionic) =   -2.714870

   izeta = 1
                     rc =    7.853192
                 energy =    0.331669
                kinetic =    1.088595
    potential(screened) =   -0.756926
       potential(ionic) =   -2.714870
atom: Total number of Sankey-type orbitals: 13

atm_pop: Valence configuration (for local Pseudopot. screening):
 3s( 2.00)                                                            
 3p( 2.00)                                                            
Vna: chval, zval:    4.00000   4.00000

Vna:  Cut-off radius for the neutral-atom potential:   7.853192
atom: Total number of Sankey-type orbitals: 13

atm_pop: Valence configuration (for local Pseudopot. screening):
 3s( 2.00)                                                            
 3p( 2.00)                                                            
Vna: chval, zval:    4.00000   4.00000

Vna:  Cut-off radius for the neutral-atom potential:   7.853192

atom: _________________________________________________________________________

prinput: Basis input ----------------------------------------------------------

PAO.BasisType split     

%block ChemicalSpeciesLabel
    1   14 Si                      # Species index, atomic number, species label
%endblock ChemicalSpeciesLabel

%block PAO.Basis                 # Define Basis set
Si                    2                    # Species label, number of l-shells
 n=3   0   2                         # n, l, Nzeta 
   6.116      4.531   
   1.000      1.000   
 n=3   1   2 P   1                   # n, l, Nzeta, Polarization, NzetaPol
   7.853      5.397   
   1.000      1.000   
%endblock PAO.Basis

prinput: ----------------------------------------------------------------------


atom: _________________________________________________________________________

prinput: Basis input ----------------------------------------------------------

PAO.BasisType split     

%block ChemicalSpeciesLabel
    1   14 Si                      # Species index, atomic number, species label
%endblock ChemicalSpeciesLabel

%block PAO.Basis                 # Define Basis set
Si                    2                    # Species label, number of l-shells
 n=3   0   2                         # n, l, Nzeta 
   6.116      4.531   
   1.000      1.000   
 n=3   1   2 P   1                   # n, l, Nzeta, Polarization, NzetaPol
   7.853      5.397   
   1.000      1.000   
%endblock PAO.Basis

prinput: ----------------------------------------------------------------------

coor:   Atomic-coordinates input format  =     Cartesian coordinates
coor:                                          (in Angstroms)
coor:   Atomic-coordinates input format  =     Cartesian coordinates
coor:                                          (in Angstroms)

siesta: Atomic coordinates (Bohr) and species
siesta:      0.00000   0.00000   0.00000  1        1
siesta:      2.57003   2.57003   2.57003  1        2
siesta:      5.14006   5.14006   0.00000  1        3
siesta:      7.71009   7.71009   2.57003  1        4
siesta:      5.14006   0.00000   5.14006  1        5
siesta:      7.71009   2.57003   7.71009  1        6
siesta:      0.00000   5.14006   5.14006  1        7
siesta:      2.57003   7.71009   7.71009  1        8

siesta: System type = bulk      

initatomlists: Number of atoms, orbitals, and projectors:      8   104   128

siesta: ******************** Simulation parameters ****************************
siesta:
siesta: The following are some of the parameters of the simulation.
siesta: A complete list of the parameters used, including default values,
siesta: can be found in file out.fdf
siesta:
redata: Non-Collinear-spin run           =     F
redata: SpinPolarized (Up/Down) run      =     F
redata: Number of spin components        =     1

siesta: Atomic coordinates (Bohr) and species
siesta:      0.00000   0.00000   0.00000  1        1
siesta:      2.57003   2.57003   2.57003  1        2
siesta:      5.14006   5.14006   0.00000  1        3
siesta:      7.71009   7.71009   2.57003  1        4
siesta:      5.14006   0.00000   5.14006  1        5
siesta:      7.71009   2.57003   7.71009  1        6
siesta:      0.00000   5.14006   5.14006  1        7
siesta:      2.57003   7.71009   7.71009  1        8

siesta: System type = bulk      
redata: Long output                      =     F
redata: Number of Atomic Species         =        1
redata: Charge density info will appear in .RHO file
redata: Write Mulliken Pop.              =     Atomic and Orbital charges
redata: Mesh Cutoff                      =   100.0000  Ry

initatomlists: Number of atoms, orbitals, and projectors:      8   104   128
redata: Net charge of the system         =     0.0000 |e|

siesta: ******************** Simulation parameters ****************************
siesta:
siesta: The following are some of the parameters of the simulation.
siesta: A complete list of the parameters used, including default values,
siesta: can be found in file out.fdf
siesta:
redata: Max. number of SCF Iter          =       50
redata: Non-Collinear-spin run           =     F
redata: SpinPolarized (Up/Down) run      =     F
redata: Number of spin components        =     1
redata: Long output                      =     F
redata: Number of Atomic Species         =        1
redata: Performing Pulay mixing using    =     3 iterations
redata: Charge density info will appear in .RHO file
redata: Mix DM in first SCF step ?       =     F
redata: Write Mulliken Pop.              =     Atomic and Orbital charges
redata: Write Pulay info on disk?        =     F
redata: Discard 1st Pulay DM after  kick =     F
redata: New DM Mixing Weight             =     0.3000
redata: New DM Occupancy tolerance       = 0.000000000001
redata: Mesh Cutoff                      =   100.0000  Ry
redata: No kicks to SCF
redata: Net charge of the system         =     0.0000 |e|
redata: DM Mixing Weight for Kicks       =     0.5000
redata: DM Tolerance for SCF             =     0.001000
redata: Max. number of SCF Iter          =       50
redata: Require Energy convergence for SCF =     F
redata: Performing Pulay mixing using    =     3 iterations
redata: DM Energy tolerance for SCF      =     0.000100 eV
redata: Require Harris convergence for SCF =     F
redata: Mix DM in first SCF step ?       =     F
redata: DM Harris energy tolerance for SCF =     0.000100 eV
redata: Write Pulay info on disk?        =     F
redata: Using Saved Data (generic)   =     F
redata: Discard 1st Pulay DM after  kick =     F
redata: Use continuation files for DM    =     T
redata: New DM Mixing Weight             =     0.3000
redata: Neglect nonoverlap interactions  =     F
redata: New DM Occupancy tolerance       = 0.000000000001
redata: No kicks to SCF
redata: Method of Calculation            =     Diagonalization
redata: Divide and Conquer               =     T
redata: DM Mixing Weight for Kicks       =     0.5000
redata: DM Tolerance for SCF             =     0.001000
redata: Electronic Temperature           =     0.0018  Ry
redata: Require Energy convergence for SCF =     F
redata: Fix the spin of the system       =     F
redata: DM Energy tolerance for SCF      =     0.000100 eV
redata: Require Harris convergence for SCF =     F
redata: DM Harris energy tolerance for SCF =     0.000100 eV
redata: Using Saved Data (generic)   =     F
redata: Use continuation files for DM    =     T
redata: Neglect nonoverlap interactions  =     F
redata: Method of Calculation            =     Diagonalization
redata: Divide and Conquer               =     T
redata: Electronic Temperature           =     0.0018  Ry
redata: Fix the spin of the system       =     F
redata: Dynamics option                  =     CG coord. optimization
redata: Variable cell                    =     T
redata: Use continuation files for CG    =     F
redata: Max atomic displ per move        =     0.2000  Bohr
redata: Maximum number of CG moves       =      100
redata: Force tolerance                  =     0.0016  Ry/Bohr
redata: Stress tolerance                 =     1.0000  GPa
redata: Dynamics option                  =     CG coord. optimization
redata: Variable cell                    =     T
redata: Use continuation files for CG    =     F
redata: Max atomic displ per move        =     0.2000  Bohr
redata: Maximum number of CG moves       =      100
redata: Force tolerance                  =     0.0016  Ry/Bohr
redata: Stress tolerance                 =     1.0000  GPa
redata: ***********************************************************************
redata: ***********************************************************************
Total number of electrons:    32.000000
Total ionic charge:    32.000000
Total number of electrons:    32.000000
Total ionic charge:    32.000000
 Kpoints in:          196 . Kpoints trimmed:          172
 Kpoints in:          196 . Kpoints trimmed:          172

siesta: k-grid: Number of k-points =   172
siesta: k-grid: Cutoff (effective) =    18.025 Ang
siesta: k-grid: Supercell and displacements
siesta: k-grid:    0   7   0      0.000
siesta: k-grid:    0   0   7      0.000
siesta: k-grid:    7   0   0      0.000

siesta: k-grid: Number of k-points =   172
siesta: k-grid: Cutoff (effective) =    18.025 Ang
siesta: k-grid: Supercell and displacements
siesta: k-grid:    0   7   0      0.000
siesta: k-grid:    0   0   7      0.000
siesta: k-grid:    7   0   0      0.000
Naive supercell factors:     5    5    5

superc: Internal auxiliary supercell:     5 x     5 x     5  =     125
superc: Number of atoms, orbitals, and projectors:   1000  13000  16000

* Maximum dynamic memory allocated =     2 MB

siesta:                 ==============================
                            Begin CG move =      0
                        ==============================

outcoor: Atomic coordinates (Ang):                          
    0.00000000    0.00000000    0.00000000   1       1  Si
    1.36000000    1.36000000    1.36000000   1       2  Si
    2.72000000    2.72000000    0.00000000   1       3  Si
    4.08000000    4.08000000    1.36000000   1       4  Si
    2.72000000    0.00000000    2.72000000   1       5  Si
    4.08000000    1.36000000    4.08000000   1       6  Si
    0.00000000    2.72000000    2.72000000   1       7  Si
    1.36000000    4.08000000    4.08000000   1       8  Si
Naive supercell factors:     5    5    5

superc: Internal auxiliary supercell:     5 x     5 x     5  =     125
superc: Number of atoms, orbitals, and projectors:   1000  13000  16000

superc: Internal auxiliary supercell:     5 x     5 x     5  =     125
superc: Number of atoms, orbitals, and projectors:   1000  13000  16000

outcell: Unit cell vectors (Ang):

        5.150000    0.000000    0.000000
* Maximum dynamic memory allocated =     2 MB
        0.000000    5.150000    0.000000

        0.000000    0.000000    5.150000
siesta:                 ==============================
                            Begin CG move =      0

                        ==============================
outcell: Cell vector modules (Ang)   :    5.150000    5.150000    5.150000
outcell: Cell angles (23,13,12) (deg):     90.0000     90.0000     90.0000
outcell: Cell volume (Ang**3)        :    136.5909

outcoor: Atomic coordinates (Ang):                          
    0.00000000    0.00000000    0.00000000   1       1  Si
    1.36000000    1.36000000    1.36000000   1       2  Si
    2.72000000    2.72000000    0.00000000   1       3  Si
    4.08000000    4.08000000    1.36000000   1       4  Si
    2.72000000    0.00000000    2.72000000   1       5  Si
    4.08000000    1.36000000    4.08000000   1       6  Si
    0.00000000    2.72000000    2.72000000   1       7  Si
    1.36000000    4.08000000    4.08000000   1       8  Si

superc: Internal auxiliary supercell:     5 x     5 x     5  =     125
superc: Number of atoms, orbitals, and projectors:   1000  13000  16000

outcell: Unit cell vectors (Ang):
        5.150000    0.000000    0.000000
        0.000000    5.150000    0.000000
        0.000000    0.000000    5.150000

outcell: Cell vector modules (Ang)   :    5.150000    5.150000    5.150000
outcell: Cell angles (23,13,12) (deg):     90.0000     90.0000     90.0000
outcell: Cell volume (Ang**3)        :    136.5909
New_DM. Step:     1
Initializing Density Matrix...
New_DM. Step:     1
Initializing Density Matrix...

iodm: Reading Density Matrix from files
 Read DM has different structure. Fixing...

InitMesh: MESH =    32 x    32 x    32 =       32768
InitMesh: Mesh cutoff (required, used) =   100.000   106.706 Ry

InitMesh: MESH =    32 x    32 x    32 =       32768
InitMesh: Mesh cutoff (required, used) =   100.000   106.706 Ry

* Maximum dynamic memory allocated =    81 MB

* Maximum dynamic memory allocated =    81 MB

stepf: Fermi-Dirac step function

stepf: Fermi-Dirac step function

siesta: Program's energy decomposition (eV):
siesta: Ebs     =      -381.796763
siesta: Eions   =      1510.441798
siesta: Ena     =       453.954548
siesta: Ekin    =       288.938730
siesta: Enl     =       144.107197
siesta: DEna    =         0.000001
siesta: DUscf   =         0.000000
siesta: DUext   =         0.000000
siesta: Exc     =      -264.007667
siesta: eta*DQ  =         0.000000
siesta: Emadel  =         0.000000
siesta: Emeta   =         0.000000
siesta: Emolmec =         0.000000
siesta: Ekinion =         0.000000
siesta: Eharris =      -859.163571
siesta: Etot    =      -887.448990
siesta: FreeEng =      -887.448990

siesta: iscf   Eharris(eV)      E_KS(eV)   FreeEng(eV)   dDmax  Ef(eV)
siesta:    1     -859.1636     -887.4490     -887.4490  1.6907 -5.9675
timer: Routine,Calls,Time,% = IterSCF        1      29.234  97.54
elaps: Routine,Calls,Wall,% = IterSCF        1      29.519  97.56

siesta: Program's energy decomposition (eV):
siesta: Ebs     =      -369.732872
siesta: Eions   =      1510.441798
siesta: Ena     =       453.954548
siesta: Ekin    =       347.464035
siesta: Enl     =       117.580269
siesta: DEna    =        -0.609352
siesta: DUscf   =         1.746000
siesta: DUext   =         0.000000
siesta: Exc     =      -269.249539
siesta: eta*DQ  =         0.000000
siesta: Emadel  =         0.000000
siesta: Emeta   =         0.000000
siesta: Emolmec =         0.000000
siesta: Ekinion =         0.000000
siesta: Eharris =      -858.587880
siesta: Etot    =      -859.555839
siesta: FreeEng =      -859.555839

siesta: iscf   Eharris(eV)      E_KS(eV)   FreeEng(eV)   dDmax  Ef(eV)
siesta:    1     -858.5879     -859.5558     -859.5558  0.0517 -5.7271
timer: Routine,Calls,Time,% = IterSCF        1      30.042  97.46
elaps: Routine,Calls,Wall,% = IterSCF        1      30.303  97.46
siesta:    2     -858.6079     -858.2802     -858.2816  0.1993 -5.7057
siesta:    2     -858.9002     -858.2958     -858.2971  0.1104 -5.8863
siesta:    3     -858.4987     -860.7120     -860.7135  0.1284 -5.7614
siesta:    3     -858.4918     -858.8106     -858.8119  0.0203 -5.7718
siesta:    4     -858.4924     -858.6261     -858.6276  0.0126 -5.7676
siesta:    4     -858.4918     -858.4715     -858.4728  0.0009 -5.7711
siesta:    5     -858.4919     -858.4891     -858.4905  0.0036 -5.7687

siesta: E_KS(eV) =             -858.4671

siesta: E_KS - E_eggbox =      -858.4671

siesta: Atomic forces (eV/Ang):
----------------------------------------
   Tot   -0.003543   -0.003545   -0.003549
----------------------------------------
   Max    3.112568
   Res    2.090925    sqrt( Sum f_i^2 / 3N )
----------------------------------------
   Max    3.112568    constrained

Stress-tensor-Voigt (kbar):     -243.79     -243.79     -243.79       71.93       71.93       71.93
(Free)E + p*V (eV/cell)     -837.6846
Target enthalpy (eV/cell)     -858.4684

siesta: Stress tensor (static) (eV/Ang**3):
        -0.152161    0.044897    0.044897
         0.044897   -0.152161    0.044897
         0.044897    0.044897   -0.152161

siesta: Pressure (static):        243.79217712  kBar

siesta: Stress tensor (total) (eV/Ang**3):
        -0.152161    0.044897    0.044897
         0.044897   -0.152161    0.044897
         0.044897    0.044897   -0.152161

siesta: Pressure (total):        243.79217712  kBar

mulliken: Mulliken Atomic and Orbital Populations:

Species: Si                  
Atom  Qatom  Qorb
               3s      3s      3py     3pz     3px     3py     3pz     3px     
               3Pdxy   3Pdyz   3Pdz2   3Pdxz   3Pdx2-y2
   1  4.166   0.326   0.752   0.070   0.070   0.070   0.697   0.697   0.697
              0.175   0.175   0.133   0.175   0.133
   2  3.906   0.652   0.575   0.117   0.117   0.117   0.589   0.589   0.589
              0.134   0.134   0.081   0.134   0.081
   3  3.948   0.550   0.622   0.060   0.148   0.060   0.646   0.592   0.646
              0.153   0.142   0.084   0.142   0.103
   4  4.027   0.443   0.680   0.106  -0.007   0.106   0.646   0.713   0.646
              0.153   0.159   0.126   0.159   0.098
   5  3.948   0.550   0.622   0.148   0.060   0.060   0.592   0.646   0.646
              0.142   0.142   0.099   0.153   0.089
   6  4.027   0.443   0.680  -0.007   0.106   0.106   0.713   0.646   0.646
              0.159   0.159   0.105   0.153   0.119
   7  3.948   0.550   0.622   0.060   0.060   0.148   0.646   0.646   0.592
              0.142   0.153   0.099   0.142   0.089
   8  4.027   0.443   0.680   0.106   0.106  -0.007   0.646   0.646   0.713
              0.159   0.153   0.105   0.159   0.119

mulliken: Qtot =       32.000

cgvc: No target stress found, assuming hydrostatic MD.TargetPressure.

cgvc: Target stress (kBar)
cgvc:        -0.000       0.000       0.000
cgvc:         0.000      -0.000       0.000
cgvc:         0.000       0.000      -0.000

* Maximum dynamic memory allocated =    82 MB

siesta:                 ==============================
                            Begin CG move =      1
                        ==============================

outcoor: Atomic coordinates (Ang):                          
    0.02144215    0.02144208    0.02144198   1       1  Si
    1.36698347    1.36698349    1.36698364   1       2  Si
    2.72990380    2.72990382    0.00889242   1       3  Si
    4.07105160    4.07105158    1.36708668   1       4  Si
    2.72990388    0.00889261    2.72990383   1       5  Si
    4.07105160    1.36708665    4.07105161   1       6  Si
    0.00889265    2.72990390    2.72990382   1       7  Si
    1.36708662    4.07105163    4.07105164   1       8  Si
 Kpoints in:          196 . Kpoints trimmed:          172

siesta: k-grid: Number of k-points =   172
siesta: k-grid: Cutoff (effective) =    18.150 Ang
siesta: k-grid: Supercell and displacements
siesta: k-grid:    0   7   0      0.000
siesta: k-grid:    7   0   0      0.000
siesta: k-grid:    0   0   7      0.000
Naive supercell factors:     5    5    5

superc: Internal auxiliary supercell:     5 x     5 x     5  =     125
superc: Number of atoms, orbitals, and projectors:   1000  13000  16000

outcell: Unit cell vectors (Ang):
        5.185681   -0.010528   -0.010528
       -0.010528    5.185681   -0.010528
       -0.010528   -0.010528    5.185681

outcell: Cell vector modules (Ang)   :    5.185703    5.185703    5.185703
outcell: Cell angles (23,13,12) (deg):     90.2324     90.2324     90.2324
outcell: Cell volume (Ang**3)        :    139.4479
New_DM. Step:     2
Re-using DM from previous geometry...
Re-using DM without extrapolation (not allowed)
Density Matrix sparsity pattern changed.

InitMesh: MESH =    32 x    32 x    32 =       32768
InitMesh: Mesh cutoff (required, used) =   100.000   105.245 Ry
siesta:    6     -858.4918     -858.5216     -858.5230  0.0038 -5.7699

siesta: iscf   Eharris(eV)      E_KS(eV)   FreeEng(eV)   dDmax  Ef(eV)
siesta:    1     -859.7099     -858.5441     -858.5455  0.0544 -5.6955
siesta:    7     -858.4917     -858.5222     -858.5235  0.0028 -5.7703
siesta:    2     -859.7442     -859.6754     -859.6766  0.0325 -5.6595
siesta:    8     -858.4918     -858.5087     -858.5100  0.0013 -5.7702
siesta:    9     -858.4917     -858.4998     -858.5011  0.0006 -5.7701
siesta:    3     -859.6985     -859.6070     -859.6080  0.0055 -5.6803

siesta: E_KS(eV) =             -858.4921

siesta: E_KS - E_eggbox =      -858.4921

siesta: Atomic forces (eV/Ang):
----------------------------------------
   Tot   -0.003545   -0.003550   -0.003552
----------------------------------------
   Max    3.103063
   Res    2.085774    sqrt( Sum f_i^2 / 3N )
----------------------------------------
   Max    3.103063    constrained

Stress-tensor-Voigt (kbar):     -243.51     -243.51     -243.51       71.74       71.74       71.74
(Free)E + p*V (eV/cell)     -837.7338
Target enthalpy (eV/cell)     -858.4935

siesta: Stress tensor (static) (eV/Ang**3):
        -0.151985    0.044778    0.044778
         0.044778   -0.151985    0.044778
         0.044778    0.044778   -0.151985

siesta: Pressure (static):        243.50879220  kBar

siesta: Stress tensor (total) (eV/Ang**3):
        -0.151985    0.044778    0.044778
         0.044778   -0.151985    0.044778
         0.044778    0.044778   -0.151985

siesta: Pressure (total):        243.50879220  kBar

mulliken: Mulliken Atomic and Orbital Populations:

Species: Si                  
Atom  Qatom  Qorb
               3s      3s      3py     3pz     3px     3py     3pz     3px     
               3Pdxy   3Pdyz   3Pdz2   3Pdxz   3Pdx2-y2
   1  4.166   0.326   0.752   0.069   0.069   0.069   0.697   0.697   0.697
              0.174   0.174   0.133   0.174   0.133
   2  3.906   0.652   0.575   0.117   0.117   0.117   0.589   0.589   0.589
              0.134   0.134   0.081   0.134   0.081
   3  3.948   0.550   0.622   0.060   0.148   0.060   0.646   0.592   0.646
              0.153   0.142   0.084   0.142   0.103
   4  4.027   0.443   0.680   0.106  -0.008   0.106   0.646   0.714   0.646
              0.153   0.159   0.126   0.159   0.098
   5  3.948   0.550   0.622   0.148   0.060   0.060   0.592   0.646   0.646
              0.142   0.142   0.099   0.153   0.089
   6  4.027   0.443   0.680  -0.008   0.106   0.106   0.714   0.646   0.646
              0.159   0.159   0.105   0.153   0.119
   7  3.948   0.550   0.622   0.060   0.060   0.148   0.646   0.646   0.592
              0.142   0.153   0.099   0.142   0.089
   8  4.027   0.443   0.680   0.106   0.106  -0.008   0.646   0.646   0.714
              0.159   0.153   0.105   0.159   0.119

mulliken: Qtot =       32.000

cgvc: No target stress found, assuming hydrostatic MD.TargetPressure.

cgvc: Target stress (kBar)
cgvc:        -0.000       0.000       0.000
cgvc:         0.000      -0.000       0.000
cgvc:         0.000       0.000      -0.000

* Maximum dynamic memory allocated =    82 MB

siesta:                 ==============================
                            Begin CG move =      1
                        ==============================

outcoor: Atomic coordinates (Ang):                          
    0.02140965    0.02140959    0.02140948   1       1  Si
    1.36708344    1.36708344    1.36708359   1       2  Si
    2.72986039    2.72986040    0.00891267   1       3  Si
    4.07110954    4.07110953    1.36711111   1       4  Si
    2.72986045    0.00891275    2.72986038   1       5  Si
    4.07110954    1.36711095    4.07110945   1       6  Si
    0.00891279    2.72986046    2.72986037   1       7  Si
    1.36711094    4.07110955    4.07110947   1       8  Si
 Kpoints in:          196 . Kpoints trimmed:          172

siesta: k-grid: Number of k-points =   172
siesta: k-grid: Cutoff (effective) =    18.150 Ang
siesta: k-grid: Supercell and displacements
siesta: k-grid:    0   0   7      0.000
siesta: k-grid:    7   0   0      0.000
siesta: k-grid:    0   7   0      0.000
Naive supercell factors:     5    5    5

superc: Internal auxiliary supercell:     5 x     5 x     5  =     125
superc: Number of atoms, orbitals, and projectors:   1000  13000  16000

outcell: Unit cell vectors (Ang):
        5.185713   -0.010522   -0.010522
       -0.010522    5.185713   -0.010522
       -0.010522   -0.010522    5.185713

outcell: Cell vector modules (Ang)   :    5.185734    5.185734    5.185734
outcell: Cell angles (23,13,12) (deg):     90.2323     90.2323     90.2323
outcell: Cell volume (Ang**3)        :    139.4505
New_DM. Step:     2
Re-using DM from previous geometry...
Re-using DM without extrapolation (not allowed)
Density Matrix sparsity pattern changed.
siesta:    4     -859.6982     -859.6826     -859.6837  0.0006 -5.6823

InitMesh: MESH =    32 x    32 x    32 =       32768
InitMesh: Mesh cutoff (required, used) =   100.000   105.244 Ry

siesta: E_KS(eV) =             -859.6896

siesta: Atomic forces (eV/Ang):
----------------------------------------
   Tot   -0.013508   -0.013606   -0.013794
----------------------------------------
   Max    2.185430
   Res    1.527510    sqrt( Sum f_i^2 / 3N )
----------------------------------------
   Max    2.185430    constrained

Stress-tensor-Voigt (kbar):     -196.01     -196.01     -196.01       43.91       43.90       43.91
(Free)E + p*V (eV/cell)     -842.6311
Target enthalpy (eV/cell)     -859.6907

siesta: Stress tensor (static) (eV/Ang**3):
        -0.122337    0.027405    0.027404
         0.027405   -0.122337    0.027403
         0.027404    0.027403   -0.122336

siesta: Pressure (static):        196.00700167  kBar

siesta: Stress tensor (total) (eV/Ang**3):
        -0.122337    0.027405    0.027404
         0.027405   -0.122337    0.027403
         0.027404    0.027403   -0.122336

siesta: Pressure (total):        196.00700167  kBar

mulliken: Mulliken Atomic and Orbital Populations:

Species: Si                  
Atom  Qatom  Qorb
               3s      3s      3py     3pz     3px     3py     3pz     3px     
               3Pdxy   3Pdyz   3Pdz2   3Pdxz   3Pdx2-y2
   1  4.100   0.389   0.710   0.072   0.072   0.072   0.685   0.685   0.685
              0.165   0.165   0.119   0.165   0.119
   2  3.928   0.648   0.572   0.129   0.129   0.129   0.588   0.588   0.588
              0.133   0.133   0.080   0.133   0.080
   3  3.967   0.561   0.614   0.081   0.152   0.081   0.637   0.592   0.637
              0.149   0.141   0.084   0.141   0.099
   4  4.023   0.473   0.661   0.118   0.014   0.118   0.635   0.698   0.635
              0.149   0.156   0.116   0.156   0.094
   5  3.967   0.561   0.614   0.152   0.081   0.081   0.592   0.637   0.637
              0.141   0.141   0.095   0.149   0.088
   6  4.023   0.473   0.661   0.014   0.118   0.118   0.698   0.635   0.635
              0.156   0.156   0.100   0.149   0.111
   7  3.967   0.561   0.614   0.081   0.081   0.152   0.637   0.637   0.592
              0.141   0.149   0.095   0.141   0.088
   8  4.023   0.473   0.661   0.118   0.118   0.014   0.635   0.635   0.698
              0.156   0.149   0.100   0.156   0.111

mulliken: Qtot =       32.000

* Maximum dynamic memory allocated =    95 MB

siesta:                 ==============================
                            Begin CG move =      2
                        ==============================

outcoor: Atomic coordinates (Ang):                          
    0.05600218    0.05600199    0.05600173   1       1  Si
    1.37819380    1.37819385    1.37819425   1       2  Si
    2.74551344    2.74551348    0.02374929   1       3  Si
    4.05608687    4.05608680    1.37927415   1       4  Si
    2.74551363    0.02374979    2.74551351   1       5  Si
    4.05608687    1.37927408    4.05608689   1       6  Si
    0.02374991    2.74551369    2.74551348   1       7  Si
    1.37927398    4.05608693    4.05608697   1       8  Si
 Kpoints in:          196 . Kpoints trimmed:          172

siesta: k-grid: Number of k-points =   172
siesta: k-grid: Cutoff (effective) =    18.350 Ang
siesta: k-grid: Supercell and displacements
siesta: k-grid:    0   7   0      0.000
siesta: k-grid:    7   0   0      0.000
siesta: k-grid:    0   0   7      0.000
Naive supercell factors:     5    5    5

superc: Internal auxiliary supercell:     5 x     5 x     5  =     125
superc: Number of atoms, orbitals, and projectors:   1000  13000  16000

outcell: Unit cell vectors (Ang):
        5.242771   -0.027373   -0.027373
       -0.027373    5.242771   -0.027373
       -0.027373   -0.027373    5.242771

outcell: Cell vector modules (Ang)   :    5.242914    5.242914    5.242914
outcell: Cell angles (23,13,12) (deg):     90.5967     90.5967     90.5967
outcell: Cell volume (Ang**3)        :    144.0944
New_DM. Step:     3
Re-using DM from previous geometry...
Re-using DM without extrapolation (not allowed)
Density Matrix sparsity pattern changed.

siesta: iscf   Eharris(eV)      E_KS(eV)   FreeEng(eV)   dDmax  Ef(eV)
siesta:    1     -859.7100     -858.5691     -858.5705  0.0540 -5.6950

InitMesh: MESH =    32 x    32 x    32 =       32768
InitMesh: Mesh cutoff (required, used) =   100.000   102.980 Ry
siesta:    2     -859.7444     -859.6755     -859.6767  0.0327 -5.6594

siesta: iscf   Eharris(eV)      E_KS(eV)   FreeEng(eV)   dDmax  Ef(eV)
siesta:    1     -861.0135     -859.3628     -859.3639  0.0538 -5.6317
siesta:    3     -859.6986     -859.6092     -859.6102  0.0055 -5.6801
siesta:    2     -861.1520     -860.8731     -860.8733  0.0623 -5.5916
siesta:    4     -859.6983     -859.6834     -859.6845  0.0005 -5.6821
siesta:    3     -860.9673     -860.6971     -860.6973  0.0148 -5.6161

siesta: E_KS(eV) =             -859.6898

siesta: Atomic forces (eV/Ang):
----------------------------------------
   Tot   -0.013363   -0.013360   -0.013369
----------------------------------------
   Max    2.186594
   Res    1.527958    sqrt( Sum f_i^2 / 3N )
----------------------------------------
   Max    2.186594    constrained

Stress-tensor-Voigt (kbar):     -195.99     -195.99     -195.99       43.96       43.96       43.96
(Free)E + p*V (eV/cell)     -842.6326
Target enthalpy (eV/cell)     -859.6909

siesta: Stress tensor (static) (eV/Ang**3):
        -0.122325    0.027437    0.027437
         0.027437   -0.122325    0.027437
         0.027437    0.027437   -0.122325

siesta: Pressure (static):        195.98787725  kBar

siesta: Stress tensor (total) (eV/Ang**3):
        -0.122325    0.027437    0.027437
         0.027437   -0.122325    0.027437
         0.027437    0.027437   -0.122325

siesta: Pressure (total):        195.98787725  kBar

mulliken: Mulliken Atomic and Orbital Populations:

Species: Si                  
Atom  Qatom  Qorb
               3s      3s      3py     3pz     3px     3py     3pz     3px     
               3Pdxy   3Pdyz   3Pdz2   3Pdxz   3Pdx2-y2
   1  4.100   0.389   0.710   0.072   0.072   0.072   0.685   0.685   0.685
              0.165   0.165   0.119   0.165   0.119
   2  3.928   0.648   0.572   0.129   0.129   0.129   0.588   0.588   0.588
              0.133   0.133   0.080   0.133   0.080
   3  3.967   0.561   0.614   0.081   0.152   0.081   0.637   0.592   0.637
              0.149   0.141   0.084   0.141   0.099
   4  4.023   0.473   0.661   0.118   0.014   0.118   0.635   0.698   0.635
              0.149   0.156   0.116   0.156   0.094
   5  3.967   0.561   0.614   0.152   0.081   0.081   0.592   0.637   0.637
              0.141   0.141   0.095   0.149   0.088
   6  4.023   0.473   0.661   0.014   0.118   0.118   0.698   0.635   0.635
              0.156   0.156   0.100   0.149   0.111
   7  3.967   0.561   0.614   0.081   0.081   0.152   0.637   0.637   0.592
              0.141   0.149   0.095   0.141   0.088
   8  4.023   0.473   0.661   0.118   0.118   0.014   0.635   0.635   0.698
              0.156   0.149   0.100   0.156   0.111

mulliken: Qtot =       32.000

* Maximum dynamic memory allocated =    95 MB

siesta:                 ==============================
                            Begin CG move =      2
                        ==============================

outcoor: Atomic coordinates (Ang):                          
    0.05591805    0.05591792    0.05591762   1       1  Si
    1.37845486    1.37845487    1.37845527   1       2  Si
    2.74539915    2.74539920    0.02380387   1       3  Si
    4.05623726    4.05623723    1.37933749   1       4  Si
    2.74539932    0.02380408    2.74539915   1       5  Si
    4.05623727    1.37933708    4.05623702   1       6  Si
    0.02380418    2.74539934    2.74539910   1       7  Si
    1.37933704    4.05623728    4.05623709   1       8  Si
 Kpoints in:          196 . Kpoints trimmed:          172

siesta: k-grid: Number of k-points =   172
siesta: k-grid: Cutoff (effective) =    18.350 Ang
siesta: k-grid: Supercell and displacements
siesta: k-grid:    0   0   7      0.000
siesta: k-grid:    7   0   0      0.000
siesta: k-grid:    0   7   0      0.000
Naive supercell factors:     5    5    5

superc: Internal auxiliary supercell:     5 x     5 x     5  =     125
superc: Number of atoms, orbitals, and projectors:   1000  13000  16000

outcell: Unit cell vectors (Ang):
        5.242854   -0.027357   -0.027357
       -0.027357    5.242854   -0.027357
       -0.027357   -0.027357    5.242854

outcell: Cell vector modules (Ang)   :    5.242996    5.242996    5.242996
outcell: Cell angles (23,13,12) (deg):     90.5963     90.5963     90.5963
outcell: Cell volume (Ang**3)        :    144.1012
New_DM. Step:     3
Re-using DM from previous geometry...
Re-using DM without extrapolation (not allowed)
Density Matrix sparsity pattern changed.
siesta:    4     -860.9663     -860.9297     -860.9299  0.0012 -5.6183

InitMesh: MESH =    32 x    32 x    32 =       32768
InitMesh: Mesh cutoff (required, used) =   100.000   102.976 Ry
siesta:    5     -860.9662     -860.9409     -860.9411  0.0007 -5.6181

siesta: iscf   Eharris(eV)      E_KS(eV)   FreeEng(eV)   dDmax  Ef(eV)
siesta:    1     -861.0147     -859.3627     -859.3639  0.0539 -5.6310

siesta: E_KS(eV) =             -860.9609

siesta: Atomic forces (eV/Ang):
----------------------------------------
   Tot    0.006798    0.006787    0.006794
----------------------------------------
   Max    1.322731
   Res    0.786042    sqrt( Sum f_i^2 / 3N )
----------------------------------------
   Max    1.322731    constrained

Stress-tensor-Voigt (kbar):     -135.53     -135.53     -135.53        7.43        7.43        7.43
(Free)E + p*V (eV/cell)     -848.7719
Target enthalpy (eV/cell)     -860.9611

siesta: Stress tensor (static) (eV/Ang**3):
        -0.084592    0.004637    0.004637
         0.004637   -0.084592    0.004637
         0.004637    0.004637   -0.084592

siesta: Pressure (static):        135.53278923  kBar

siesta: Stress tensor (total) (eV/Ang**3):
        -0.084592    0.004637    0.004637
         0.004637   -0.084592    0.004637
         0.004637    0.004637   -0.084592

siesta: Pressure (total):        135.53278923  kBar

mulliken: Mulliken Atomic and Orbital Populations:

Species: Si                  
Atom  Qatom  Qorb
               3s      3s      3py     3pz     3px     3py     3pz     3px     
               3Pdxy   3Pdyz   3Pdz2   3Pdxz   3Pdx2-y2
   1  4.036   0.487   0.653   0.106   0.106   0.106   0.642   0.642   0.642
              0.151   0.151   0.100   0.151   0.100
   2  3.965   0.641   0.572   0.155   0.155   0.155   0.578   0.578   0.578
              0.131   0.131   0.080   0.131   0.080
   3  3.987   0.568   0.608   0.117   0.156   0.117   0.615   0.593   0.615
              0.143   0.139   0.085   0.139   0.092
   4  4.013   0.514   0.637   0.137   0.068   0.137   0.615   0.657   0.615
              0.143   0.149   0.102   0.149   0.089
   5  3.987   0.568   0.608   0.156   0.117   0.117   0.593   0.615   0.615
              0.139   0.139   0.090   0.143   0.087
   6  4.013   0.514   0.637   0.068   0.137   0.137   0.657   0.615   0.615
              0.149   0.149   0.092   0.143   0.099
   7  3.987   0.568   0.608   0.117   0.117   0.156   0.615   0.615   0.593
              0.139   0.143   0.090   0.139   0.087
   8  4.013   0.514   0.637   0.137   0.137   0.068   0.615   0.615   0.657
              0.149   0.143   0.092   0.149   0.099

mulliken: Qtot =       32.000

* Maximum dynamic memory allocated =    95 MB

siesta:                 ==============================
                            Begin CG move =      3
                        ==============================

outcoor: Atomic coordinates (Ang):                          
    0.11194486    0.11194448    0.11194395   1       1  Si
    1.39622445    1.39622455    1.39622535   1       2  Si
    2.76988354    2.76988362    0.04913054   1       3  Si
    4.03048621    4.03048606    1.40094698   1       4  Si
    2.76988393    0.04913155    2.76988368   1       5  Si
    4.03048621    1.40094684    4.03048626   1       6  Si
    0.04913179    2.76988404    2.76988362   1       7  Si
    1.40094664    4.03048634    4.03048642   1       8  Si
 Kpoints in:          108 . Kpoints trimmed:          108

siesta: k-grid: Number of k-points =   108
siesta: k-grid: Cutoff (effective) =    16.004 Ang
siesta: k-grid: Supercell and displacements
siesta: k-grid:    0   6   0      0.500
siesta: k-grid:    6   0   0      0.500
siesta: k-grid:    0   0   6      0.500
Naive supercell factors:     5    5    5

superc: Internal auxiliary supercell:     5 x     5 x     5  =     125
superc: Number of atoms, orbitals, and projectors:   1000  13000  16000

outcell: Unit cell vectors (Ang):
        5.334115   -0.054325   -0.054325
       -0.054325    5.334115   -0.054325
       -0.054325   -0.054325    5.334115

outcell: Cell vector modules (Ang)   :    5.334668    5.334668    5.334668
outcell: Cell angles (23,13,12) (deg):     91.1610     91.1610     91.1609
outcell: Cell volume (Ang**3)        :    151.7229
New_DM. Step:     4
Re-using DM from previous geometry...
Re-using DM without extrapolation (not allowed)
Density Matrix sparsity pattern changed.
siesta:    2     -861.1534     -860.8738     -860.8740  0.0623 -5.5907

InitMesh: MESH =    36 x    36 x    36 =       46656
InitMesh: Mesh cutoff (required, used) =   100.000   125.967 Ry
siesta:    3     -860.9683     -860.6974     -860.6976  0.0148 -5.6152

siesta: iscf   Eharris(eV)      E_KS(eV)   FreeEng(eV)   dDmax  Ef(eV)
siesta:    1     -861.7352     -859.5852     -859.5854  0.0652 -5.5217
siesta:    2     -862.3032     -861.1520     -861.1520  0.0991 -5.5578
siesta:    4     -860.9673     -860.9306     -860.9308  0.0012 -5.6174
siesta:    3     -861.5402     -860.9051     -860.9052  0.0297 -5.5243
siesta:    5     -860.9672     -860.9418     -860.9420  0.0007 -5.6172
siesta:    4     -861.5384     -861.4206     -861.4206  0.0032 -5.5249

siesta: E_KS(eV) =             -860.9619

siesta: Atomic forces (eV/Ang):
----------------------------------------
   Tot    0.006635    0.006629    0.006626
----------------------------------------
   Max    1.322056
   Res    0.785926    sqrt( Sum f_i^2 / 3N )
----------------------------------------
   Max    1.322056    constrained

Stress-tensor-Voigt (kbar):     -135.51     -135.51     -135.51        7.56        7.56        7.56
(Free)E + p*V (eV/cell)     -848.7741
Target enthalpy (eV/cell)     -860.9621

siesta: Stress tensor (static) (eV/Ang**3):
        -0.084579    0.004718    0.004717
         0.004718   -0.084579    0.004717
         0.004717    0.004717   -0.084579

siesta: Pressure (static):        135.51225193  kBar

siesta: Stress tensor (total) (eV/Ang**3):
        -0.084579    0.004718    0.004717
         0.004718   -0.084579    0.004717
         0.004717    0.004717   -0.084579

siesta: Pressure (total):        135.51225193  kBar

mulliken: Mulliken Atomic and Orbital Populations:

Species: Si                  
Atom  Qatom  Qorb
               3s      3s      3py     3pz     3px     3py     3pz     3px     
               3Pdxy   3Pdyz   3Pdz2   3Pdxz   3Pdx2-y2
   1  4.036   0.487   0.653   0.106   0.106   0.106   0.642   0.642   0.642
              0.151   0.151   0.100   0.151   0.100
   2  3.965   0.641   0.572   0.155   0.155   0.155   0.578   0.578   0.578
              0.131   0.131   0.080   0.131   0.080
   3  3.987   0.568   0.608   0.117   0.156   0.117   0.615   0.593   0.615
              0.143   0.139   0.085   0.139   0.092
   4  4.012   0.514   0.637   0.137   0.068   0.137   0.615   0.657   0.615
              0.143   0.149   0.102   0.149   0.089
   5  3.987   0.568   0.608   0.156   0.117   0.117   0.593   0.615   0.615
              0.139   0.139   0.090   0.143   0.087
   6  4.012   0.514   0.637   0.068   0.137   0.137   0.657   0.615   0.615
              0.149   0.149   0.092   0.143   0.099
   7  3.987   0.568   0.608   0.117   0.117   0.156   0.615   0.615   0.593
              0.139   0.143   0.090   0.139   0.087
   8  4.012   0.514   0.637   0.137   0.137   0.068   0.615   0.615   0.657
              0.149   0.143   0.092   0.149   0.099

mulliken: Qtot =       32.000

* Maximum dynamic memory allocated =    95 MB

siesta:                 ==============================
                            Begin CG move =      3
                        ==============================

outcoor: Atomic coordinates (Ang):                          
    0.11177912    0.11177885    0.11177823   1       1  Si
    1.39674623    1.39674624    1.39674704   1       2  Si
    2.76965228    2.76965238    0.04924498   1       3  Si
    4.03078389    4.03078383    1.40107214   1       4  Si
    2.76965262    0.04924540    2.76965228   1       5  Si
    4.03078393    1.40107131    4.03078343   1       6  Si
    0.04924561    2.76965266    2.76965218   1       7  Si
    1.40107123    4.03078395    4.03078356   1       8  Si
 Kpoints in:          108 . Kpoints trimmed:          108

siesta: k-grid: Number of k-points =   108
siesta: k-grid: Cutoff (effective) =    16.004 Ang
siesta: k-grid: Supercell and displacements
siesta: k-grid:    0   0   6      0.500
siesta: k-grid:    6   0   0      0.500
siesta: k-grid:    0   6   0      0.500
Naive supercell factors:     5    5    5

superc: Internal auxiliary supercell:     5 x     5 x     5  =     125
superc: Number of atoms, orbitals, and projectors:   1000  13000  16000

outcell: Unit cell vectors (Ang):
        5.334279   -0.054292   -0.054292
       -0.054292    5.334279   -0.054292
       -0.054292   -0.054292    5.334279

outcell: Cell vector modules (Ang)   :    5.334831    5.334831    5.334831
outcell: Cell angles (23,13,12) (deg):     91.1602     91.1602     91.1602
outcell: Cell volume (Ang**3)        :    151.7369
New_DM. Step:     4
Re-using DM from previous geometry...
Re-using DM without extrapolation (not allowed)
Density Matrix sparsity pattern changed.
siesta:    5     -861.5383     -861.4597     -861.4597  0.0020 -5.5249

InitMesh: MESH =    36 x    36 x    36 =       46656
InitMesh: Mesh cutoff (required, used) =   100.000   125.959 Ry
siesta:    6     -861.5383     -861.5143     -861.5143  0.0004 -5.5246

siesta: iscf   Eharris(eV)      E_KS(eV)   FreeEng(eV)   dDmax  Ef(eV)
siesta:    1     -861.7398     -859.5874     -859.5875  0.0653 -5.5224

siesta: E_KS(eV) =             -861.5231

siesta: Atomic forces (eV/Ang):
----------------------------------------
   Tot   -0.002788   -0.002784   -0.002771
----------------------------------------
   Max    0.872526
   Res    0.696620    sqrt( Sum f_i^2 / 3N )
----------------------------------------
   Max    0.872526    constrained

Stress-tensor-Voigt (kbar):      -69.19      -69.19      -69.19      -36.60      -36.60      -36.60
(Free)E + p*V (eV/cell)     -854.9705
Target enthalpy (eV/cell)     -861.5231

siesta: Stress tensor (static) (eV/Ang**3):
        -0.043187   -0.022846   -0.022847
        -0.022846   -0.043187   -0.022847
        -0.022847   -0.022847   -0.043187

siesta: Pressure (static):         69.19455032  kBar

siesta: Stress tensor (total) (eV/Ang**3):
        -0.043187   -0.022846   -0.022847
        -0.022846   -0.043187   -0.022847
        -0.022847   -0.022847   -0.043187

siesta: Pressure (total):         69.19455032  kBar

mulliken: Mulliken Atomic and Orbital Populations:

Species: Si                  
Atom  Qatom  Qorb
               3s      3s      3py     3pz     3px     3py     3pz     3px     
               3Pdxy   3Pdyz   3Pdz2   3Pdxz   3Pdx2-y2
   1  3.994   0.625   0.579   0.182   0.182   0.182   0.565   0.565   0.565
              0.130   0.130   0.080   0.130   0.080
   2  3.994   0.612   0.585   0.175   0.175   0.175   0.571   0.571   0.571
              0.132   0.132   0.081   0.132   0.081
   3  4.002   0.575   0.604   0.170   0.144   0.170   0.581   0.598   0.581
              0.135   0.137   0.088   0.137   0.083
   4  4.002   0.579   0.602   0.170   0.154   0.170   0.580   0.590   0.580
              0.135   0.136   0.086   0.136   0.083
   5  4.002   0.575   0.604   0.144   0.170   0.170   0.598   0.581   0.581
              0.137   0.137   0.084   0.135   0.087
   6  4.002   0.579   0.602   0.154   0.170   0.170   0.590   0.580   0.580
              0.136   0.136   0.084   0.135   0.086
   7  4.002   0.575   0.604   0.170   0.170   0.144   0.581   0.581   0.598
              0.137   0.135   0.084   0.137   0.087
   8  4.002   0.579   0.602   0.170   0.170   0.154   0.580   0.580   0.590
              0.136   0.135   0.084   0.136   0.086

mulliken: Qtot =       32.000

* Maximum dynamic memory allocated =    95 MB

siesta:                 ==============================
                            Begin CG move =      4
                        ==============================

outcoor: Atomic coordinates (Ang):                          
    0.10652938    0.10652903    0.10652852   1       1  Si
    1.39448512    1.39448522    1.39448598   1       2  Si
    2.76757187    2.76757195    0.04660309   1       3  Si
    4.03303727    4.03303713    1.39874612   1       4  Si
    2.76757224    0.04660405    2.76757200   1       5  Si
    4.03303727    1.39874599    4.03303732   1       6  Si
    0.04660427    2.76757234    2.76757195   1       7  Si
    1.39874580    4.03303740    4.03303747   1       8  Si
 Kpoints in:          108 . Kpoints trimmed:          108

siesta: k-grid: Number of k-points =   108
siesta: k-grid: Cutoff (effective) =    15.977 Ang
siesta: k-grid: Supercell and displacements
siesta: k-grid:    0   6   0      0.500
siesta: k-grid:    6   0   0      0.500
siesta: k-grid:    0   0   6      0.500
Naive supercell factors:     5    5    5

superc: Internal auxiliary supercell:     5 x     5 x     5  =     125
superc: Number of atoms, orbitals, and projectors:   1000  13000  16000

outcell: Unit cell vectors (Ang):
        5.325329   -0.051733   -0.051733
       -0.051733    5.325329   -0.051733
       -0.051733   -0.051733    5.325329

outcell: Cell vector modules (Ang)   :    5.325831    5.325831    5.325831
outcell: Cell angles (23,13,12) (deg):     91.1077     91.1077     91.1076
outcell: Cell volume (Ang**3)        :    150.9786
New_DM. Step:     5
Re-using DM from previous geometry...
Re-using DM without extrapolation (not allowed)
Density Matrix sparsity pattern changed.
siesta:    2     -862.3093     -861.1556     -861.1556  0.0991 -5.5588

InitMesh: MESH =    36 x    36 x    36 =       46656
InitMesh: Mesh cutoff (required, used) =   100.000   126.376 Ry
siesta:    3     -861.5446     -860.9083     -860.9083  0.0298 -5.5251

siesta: iscf   Eharris(eV)      E_KS(eV)   FreeEng(eV)   dDmax  Ef(eV)
siesta:    1     -861.5541     -861.6757     -861.6757  0.0180 -5.5455
siesta:    4     -861.5428     -861.4248     -861.4248  0.0032 -5.5257
siesta:    2     -861.5596     -861.5483     -861.5483  0.0107 -5.5451
siesta:    5     -861.5427     -861.4639     -861.4639  0.0020 -5.5257
siesta:    3     -861.5522     -861.5645     -861.5645  0.0021 -5.5451
siesta:    6     -861.5427     -861.5187     -861.5187  0.0004 -5.5255
siesta:    4     -861.5522     -861.5507     -861.5507  0.0003 -5.5449

siesta: E_KS(eV) =             -861.5275

siesta: Atomic forces (eV/Ang):
----------------------------------------
   Tot   -0.001756   -0.001749   -0.001733
----------------------------------------
   Max    0.866805
   Res    0.689113    sqrt( Sum f_i^2 / 3N )
----------------------------------------
   Max    0.866805    constrained

Stress-tensor-Voigt (kbar):      -69.05      -69.05      -69.05      -36.31      -36.31      -36.31
(Free)E + p*V (eV/cell)     -854.9882
Target enthalpy (eV/cell)     -861.5275

siesta: Stress tensor (static) (eV/Ang**3):
        -0.043096   -0.022665   -0.022666
        -0.022665   -0.043096   -0.022666
        -0.022666   -0.022666   -0.043096

siesta: Pressure (static):         69.04848102  kBar

siesta: Stress tensor (total) (eV/Ang**3):
        -0.043096   -0.022665   -0.022666
        -0.022665   -0.043096   -0.022666
        -0.022666   -0.022666   -0.043096

siesta: Pressure (total):         69.04848102  kBar

mulliken: Mulliken Atomic and Orbital Populations:

Species: Si                  
Atom  Qatom  Qorb
               3s      3s      3py     3pz     3px     3py     3pz     3px     
               3Pdxy   3Pdyz   3Pdz2   3Pdxz   3Pdx2-y2
   1  3.994   0.626   0.579   0.183   0.183   0.183   0.564   0.564   0.564
              0.130   0.130   0.080   0.130   0.080
   2  3.994   0.612   0.585   0.175   0.175   0.175   0.571   0.571   0.571
              0.132   0.132   0.081   0.132   0.081
   3  4.002   0.575   0.604   0.170   0.144   0.170   0.581   0.598   0.581
              0.135   0.137   0.088   0.137   0.083
   4  4.002   0.579   0.602   0.170   0.154   0.170   0.580   0.590   0.580
              0.135   0.136   0.086   0.136   0.083
   5  4.002   0.575   0.604   0.144   0.170   0.170   0.598   0.581   0.581
              0.137   0.137   0.084   0.135   0.087
   6  4.002   0.579   0.602   0.154   0.170   0.170   0.590   0.580   0.580
              0.136   0.136   0.084   0.135   0.086
   7  4.002   0.575   0.604   0.170   0.170   0.144   0.581   0.581   0.598
              0.137   0.135   0.084   0.137   0.087
   8  4.002   0.579   0.602   0.170   0.170   0.154   0.580   0.580   0.590
              0.136   0.135   0.084   0.136   0.086

mulliken: Qtot =       32.000

* Maximum dynamic memory allocated =    95 MB

siesta:                 ==============================
                            Begin CG move =      4
                        ==============================

outcoor: Atomic coordinates (Ang):                          
    0.10653256    0.10653230    0.10653171   1       1  Si
    1.39503426    1.39503427    1.39503503   1       2  Si
    2.76742074    2.76742083    0.04678676   1       3  Si
    4.03324546    4.03324540    1.39893080   1       4  Si
    2.76742106    0.04678717    2.76742073   1       5  Si
    4.03324550    1.39893001    4.03324502   1       6  Si
    0.04678737    2.76742109    2.76742064   1       7  Si
    1.39892993    4.03324552    4.03324514   1       8  Si
 Kpoints in:          108 . Kpoints trimmed:          108

siesta: k-grid: Number of k-points =   108
siesta: k-grid: Cutoff (effective) =    15.979 Ang
siesta: k-grid: Supercell and displacements
siesta: k-grid:    0   0   6      0.500
siesta: k-grid:    6   0   0      0.500
siesta: k-grid:    0   6   0      0.500
Naive supercell factors:     5    5    5

superc: Internal auxiliary supercell:     5 x     5 x     5  =     125
superc: Number of atoms, orbitals, and projectors:   1000  13000  16000

outcell: Unit cell vectors (Ang):
        5.325747   -0.051779   -0.051779
       -0.051779    5.325747   -0.051779
       -0.051779   -0.051779    5.325747

outcell: Cell vector modules (Ang)   :    5.326250    5.326250    5.326250
outcell: Cell angles (23,13,12) (deg):     91.1085     91.1085     91.1085
outcell: Cell volume (Ang**3)        :    151.0141
New_DM. Step:     5
Re-using DM from previous geometry...
Re-using DM without extrapolation (not allowed)
Density Matrix sparsity pattern changed.

InitMesh: MESH =    36 x    36 x    36 =       46656
InitMesh: Mesh cutoff (required, used) =   100.000   126.356 Ry

siesta: E_KS(eV) =             -861.5511

siesta: Atomic forces (eV/Ang):
----------------------------------------
   Tot    0.007005    0.007010    0.007001
----------------------------------------
   Max    0.742124
   Res    0.619623    sqrt( Sum f_i^2 / 3N )
----------------------------------------
   Max    0.742124    constrained

Stress-tensor-Voigt (kbar):      -73.88      -73.88      -73.88      -32.83      -32.83      -32.83
(Free)E + p*V (eV/cell)     -854.5892
Target enthalpy (eV/cell)     -861.5511

siesta: Stress tensor (static) (eV/Ang**3):
        -0.046111   -0.020488   -0.020489
        -0.020488   -0.046111   -0.020489
        -0.020489   -0.020489   -0.046112

siesta: Pressure (static):         73.87947964  kBar

siesta: Stress tensor (total) (eV/Ang**3):
        -0.046111   -0.020488   -0.020489
        -0.020488   -0.046111   -0.020489
        -0.020489   -0.020489   -0.046112

siesta: Pressure (total):         73.87947964  kBar

mulliken: Mulliken Atomic and Orbital Populations:

Species: Si                  
Atom  Qatom  Qorb
               3s      3s      3py     3pz     3px     3py     3pz     3px     
               3Pdxy   3Pdyz   3Pdz2   3Pdxz   3Pdx2-y2
   1  3.993   0.613   0.585   0.174   0.174   0.174   0.572   0.572   0.572
              0.132   0.132   0.081   0.132   0.081
   2  3.993   0.615   0.583   0.175   0.175   0.175   0.571   0.571   0.571
              0.132   0.132   0.081   0.132   0.081
   3  4.002   0.575   0.604   0.166   0.147   0.166   0.584   0.596   0.584
              0.136   0.137   0.087   0.137   0.084
   4  4.003   0.573   0.605   0.167   0.146   0.167   0.584   0.597   0.584
              0.135   0.137   0.088   0.137   0.084
   5  4.002   0.575   0.604   0.147   0.166   0.166   0.596   0.584   0.584
              0.137   0.137   0.085   0.136   0.086
   6  4.003   0.573   0.605   0.146   0.167   0.167   0.597   0.584   0.584
              0.137   0.137   0.085   0.135   0.087
   7  4.002   0.575   0.604   0.166   0.166   0.147   0.584   0.584   0.596
              0.137   0.136   0.085   0.137   0.086
   8  4.003   0.573   0.605   0.167   0.167   0.146   0.584   0.584   0.597
              0.137   0.135   0.085   0.137   0.087

mulliken: Qtot =       32.000

cgvc: Finished line minimization    1.  Mean atomic displacement =    0.1644

* Maximum dynamic memory allocated =   101 MB

siesta:                 ==============================
                            Begin CG move =      5
                        ==============================

outcoor: Atomic coordinates (Ang):                          
    0.08804086    0.08804106    0.08804155   1       1  Si
    1.48411734    1.48411723    1.48411726   1       2  Si
    2.79177219    2.79177217    0.10429317   1       3  Si
    4.17107887    4.17107881    1.47363890   1       4  Si
    2.79177289    0.10429243    2.79177318   1       5  Si
    4.17107946    1.47363924    4.17107863   1       6  Si
    0.10429242    2.79177302    2.79177319   1       7  Si
    1.47363920    4.17107960    4.17107876   1       8  Si
 Kpoints in:          108 . Kpoints trimmed:          108

siesta: k-grid: Number of k-points =   108
siesta: k-grid: Cutoff (effective) =    16.303 Ang
siesta: k-grid: Supercell and displacements
siesta: k-grid:    0   6   0      0.500
siesta: k-grid:    6   0   0      0.500
siesta: k-grid:    0   0   6      0.500
Naive supercell factors:     5    5    5

superc: Internal auxiliary supercell:     5 x     5 x     5  =     125
superc: Number of atoms, orbitals, and projectors:   1000  13000  16000

outcell: Unit cell vectors (Ang):
        5.434339   -0.022959   -0.022959
       -0.022959    5.434339   -0.022959
       -0.022959   -0.022959    5.434339

outcell: Cell vector modules (Ang)   :    5.434436    5.434436    5.434436
outcell: Cell angles (23,13,12) (deg):     90.4831     90.4831     90.4831
outcell: Cell volume (Ang**3)        :    160.4785
New_DM. Step:     6
Re-using DM from previous geometry...
Re-using DM without extrapolation (not allowed)
Density Matrix sparsity pattern changed.

InitMesh: MESH =    36 x    36 x    36 =       46656
InitMesh: Mesh cutoff (required, used) =   100.000   121.300 Ry

siesta: iscf   Eharris(eV)      E_KS(eV)   FreeEng(eV)   dDmax  Ef(eV)
siesta:    1     -861.5577     -861.6754     -861.6754  0.0180 -5.5456

siesta: iscf   Eharris(eV)      E_KS(eV)   FreeEng(eV)   dDmax  Ef(eV)
siesta:    1     -861.9127     -859.9301     -859.9301  0.0622 -5.2590
siesta:    2     -861.5629     -861.5522     -861.5522  0.0104 -5.5452
siesta:    2     -862.0331     -861.7798     -861.7798  0.0742 -5.2895
siesta:    3     -861.8655     -861.6477     -861.6477  0.0095 -5.2747
siesta:    3     -861.5559     -861.5673     -861.5673  0.0020 -5.5452
siesta:    4     -861.8647     -861.8309     -861.8309  0.0028 -5.2753
siesta:    4     -861.5559     -861.5545     -861.5545  0.0003 -5.5450
siesta:    5     -861.8646     -861.8486     -861.8486  0.0018 -5.2752

siesta: E_KS(eV) =             -861.5548

siesta: Atomic forces (eV/Ang):
----------------------------------------
   Tot    0.006327    0.006336    0.006329
----------------------------------------
   Max    0.734232
   Res    0.614690    sqrt( Sum f_i^2 / 3N )
----------------------------------------
   Max    0.734232    constrained

Stress-tensor-Voigt (kbar):      -73.49      -73.49      -73.49      -32.69      -32.69      -32.69
(Free)E + p*V (eV/cell)     -854.6281
Target enthalpy (eV/cell)     -861.5548

siesta: Stress tensor (static) (eV/Ang**3):
        -0.045868   -0.020401   -0.020401
        -0.020401   -0.045868   -0.020401
        -0.020401   -0.020401   -0.045868

siesta: Pressure (static):         73.48971116  kBar

siesta: Stress tensor (total) (eV/Ang**3):
        -0.045868   -0.020401   -0.020401
        -0.020401   -0.045868   -0.020401
        -0.020401   -0.020401   -0.045868

siesta: Pressure (total):         73.48971116  kBar

mulliken: Mulliken Atomic and Orbital Populations:

Species: Si                  
Atom  Qatom  Qorb
               3s      3s      3py     3pz     3px     3py     3pz     3px     
               3Pdxy   3Pdyz   3Pdz2   3Pdxz   3Pdx2-y2
   1  3.993   0.613   0.585   0.174   0.174   0.174   0.572   0.572   0.572
              0.132   0.132   0.081   0.132   0.081
   2  3.993   0.615   0.583   0.175   0.175   0.175   0.571   0.571   0.571
              0.132   0.132   0.081   0.132   0.081
   3  4.002   0.575   0.604   0.166   0.147   0.166   0.584   0.596   0.584
              0.135   0.137   0.087   0.137   0.084
   4  4.003   0.574   0.605   0.167   0.146   0.167   0.584   0.597   0.584
              0.135   0.137   0.088   0.137   0.084
   5  4.002   0.575   0.604   0.147   0.166   0.166   0.596   0.584   0.584
              0.137   0.137   0.085   0.135   0.086
   6  4.003   0.574   0.605   0.146   0.167   0.167   0.597   0.584   0.584
              0.137   0.137   0.085   0.135   0.087
   7  4.002   0.575   0.604   0.166   0.166   0.147   0.584   0.584   0.596
              0.137   0.135   0.085   0.137   0.086
   8  4.003   0.574   0.605   0.167   0.167   0.146   0.584   0.584   0.597
              0.137   0.135   0.085   0.137   0.087

mulliken: Qtot =       32.000

cgvc: Finished line minimization    1.  Mean atomic displacement =    0.1643

* Maximum dynamic memory allocated =   101 MB

siesta:                 ==============================
                            Begin CG move =      5
                        ==============================

outcoor: Atomic coordinates (Ang):                          
    0.08801273    0.08801272    0.08801249   1       1  Si
    1.48427869    1.48427844    1.48427863   1       2  Si
    2.79184155    2.79184150    0.10438755   1       3  Si
    4.17173036    4.17173061    1.47364227   1       4  Si
    2.79184197    0.10438688    2.79184230   1       5  Si
    4.17173045    1.47364300    4.17173052   1       6  Si
    0.10438684    2.79184196    2.79184228   1       7  Si
    1.47364299    4.17173073    4.17173064   1       8  Si
 Kpoints in:          108 . Kpoints trimmed:          108

siesta: k-grid: Number of k-points =   108
siesta: k-grid: Cutoff (effective) =    16.305 Ang
siesta: k-grid: Supercell and displacements
siesta: k-grid:    6   0   0      0.500
siesta: k-grid:    0   6   0      0.500
siesta: k-grid:    0   0   6      0.500
Naive supercell factors:     5    5    5

superc: Internal auxiliary supercell:     5 x     5 x     5  =     125
superc: Number of atoms, orbitals, and projectors:   1000  13000  16000

outcell: Unit cell vectors (Ang):
        5.434757   -0.022898   -0.022898
       -0.022898    5.434757   -0.022898
       -0.022898   -0.022898    5.434757

outcell: Cell vector modules (Ang)   :    5.434854    5.434854    5.434854
outcell: Cell angles (23,13,12) (deg):     90.4818     90.4818     90.4818
outcell: Cell volume (Ang**3)        :    160.5156
New_DM. Step:     6
Re-using DM from previous geometry...
Re-using DM without extrapolation (not allowed)
Density Matrix sparsity pattern changed.
siesta:    6     -861.8645     -861.8564     -861.8564  0.0003 -5.2749

InitMesh: MESH =    36 x    36 x    36 =       46656
InitMesh: Mesh cutoff (required, used) =   100.000   121.281 Ry

siesta: E_KS(eV) =             -861.8587

siesta: Atomic forces (eV/Ang):
----------------------------------------
   Tot    0.000447    0.000452    0.000465
----------------------------------------
   Max    0.693203
   Res    0.432720    sqrt( Sum f_i^2 / 3N )
----------------------------------------
   Max    0.693203    constrained

Stress-tensor-Voigt (kbar):       -4.54       -4.54       -4.54        5.08        5.08        5.08
(Free)E + p*V (eV/cell)     -861.4035
Target enthalpy (eV/cell)     -861.8587

siesta: Stress tensor (static) (eV/Ang**3):
        -0.002836    0.003169    0.003169
         0.003169   -0.002836    0.003169
         0.003169    0.003169   -0.002836

siesta: Pressure (static):          4.54459656  kBar

siesta: Stress tensor (total) (eV/Ang**3):
        -0.002836    0.003169    0.003169
         0.003169   -0.002836    0.003169
         0.003169    0.003169   -0.002836

siesta: Pressure (total):          4.54459656  kBar

mulliken: Mulliken Atomic and Orbital Populations:

Species: Si                  
Atom  Qatom  Qorb
               3s      3s      3py     3pz     3px     3py     3pz     3px     
               3Pdxy   3Pdyz   3Pdz2   3Pdxz   3Pdx2-y2
   1  3.998   0.662   0.558   0.230   0.230   0.230   0.525   0.525   0.525
              0.122   0.122   0.073   0.122   0.073
   2  4.008   0.607   0.586   0.208   0.208   0.208   0.549   0.549   0.549
              0.128   0.128   0.079   0.128   0.079
   3  4.001   0.624   0.577   0.217   0.200   0.217   0.539   0.550   0.539
              0.125   0.127   0.079   0.127   0.076
   4  3.997   0.642   0.568   0.215   0.228   0.215   0.538   0.529   0.538
              0.125   0.124   0.074   0.124   0.077
   5  4.001   0.624   0.577   0.200   0.217   0.217   0.550   0.539   0.539
              0.127   0.127   0.077   0.125   0.078
   6  3.997   0.642   0.568   0.228   0.215   0.215   0.529   0.538   0.538
              0.124   0.124   0.076   0.125   0.075
   7  4.001   0.624   0.577   0.217   0.217   0.200   0.539   0.539   0.550
              0.127   0.125   0.077   0.127   0.078
   8  3.997   0.642   0.568   0.215   0.215   0.228   0.538   0.538   0.529
              0.124   0.125   0.076   0.124   0.075

mulliken: Qtot =       32.000

* Maximum dynamic memory allocated =   101 MB

siesta:                 ==============================
                            Begin CG move =      6
                        ==============================

outcoor: Atomic coordinates (Ang):                          
    0.09244797    0.09244804    0.09244830   1       1  Si
    1.46308724    1.46308718    1.46308738   1       2  Si
    2.78635795    2.78635796    0.09092021   1       3  Si
    4.13896259    4.13896251    1.45622631   1       4  Si
    2.78635858    0.09091988    2.78635875   1       5  Si
    4.13896304    1.45622653    4.13896241   1       6  Si
    0.09091992    2.78635870    2.78635874   1       7  Si
    1.45622646    4.13896317    4.13896255   1       8  Si
 Kpoints in:          108 . Kpoints trimmed:          108

siesta: k-grid: Number of k-points =   108
siesta: k-grid: Cutoff (effective) =    16.228 Ang
siesta: k-grid: Supercell and displacements
siesta: k-grid:    0   6   0      0.500
siesta: k-grid:    6   0   0      0.500
siesta: k-grid:    0   0   6      0.500
Naive supercell factors:     5    5    5

superc: Internal auxiliary supercell:     5 x     5 x     5  =     125
superc: Number of atoms, orbitals, and projectors:   1000  13000  16000

outcell: Unit cell vectors (Ang):
        5.409065   -0.029630   -0.029630
       -0.029630    5.409065   -0.029630
       -0.029630   -0.029630    5.409065

outcell: Cell vector modules (Ang)   :    5.409227    5.409227    5.409227
outcell: Cell angles (23,13,12) (deg):     90.6260     90.6260     90.6260
outcell: Cell volume (Ang**3)        :    158.2440
New_DM. Step:     7
Re-using DM from previous geometry...
Re-using DM without extrapolation (not allowed)
Density Matrix sparsity pattern changed.

siesta: iscf   Eharris(eV)      E_KS(eV)   FreeEng(eV)   dDmax  Ef(eV)
siesta:    1     -861.9118     -859.9317     -859.9317  0.0621 -5.2578

InitMesh: MESH =    36 x    36 x    36 =       46656
InitMesh: Mesh cutoff (required, used) =   100.000   122.445 Ry
siesta:    2     -862.0306     -861.7802     -861.7802  0.0738 -5.2880

siesta: iscf   Eharris(eV)      E_KS(eV)   FreeEng(eV)   dDmax  Ef(eV)
siesta:    1     -861.9060     -862.2721     -862.2721  0.0221 -5.3463
siesta:    3     -861.8649     -861.6490     -861.6490  0.0095 -5.2734
siesta:    2     -861.9123     -861.8989     -861.8989  0.0167 -5.3441
siesta:    4     -861.8641     -861.8307     -861.8307  0.0028 -5.2740
siesta:    3     -861.9035     -861.9263     -861.9263  0.0023 -5.3436
siesta:    5     -861.8640     -861.8483     -861.8483  0.0018 -5.2739
siesta:    4     -861.9035     -861.9020     -861.9020  0.0007 -5.3433
siesta:    6     -861.8640     -861.8560     -861.8560  0.0003 -5.2737

siesta: E_KS(eV) =             -861.9011

siesta: Atomic forces (eV/Ang):
----------------------------------------
   Tot   -0.003653   -0.003647   -0.003629
----------------------------------------
   Max    0.435825
   Res    0.268035    sqrt( Sum f_i^2 / 3N )
----------------------------------------
   Max    0.435825    constrained

Stress-tensor-Voigt (kbar):      -17.15      -17.15      -17.15       -1.75       -1.75       -1.75
[...]
         10.41  11.02  11.07  11.31  11.46  11.75  12.05  12.43  13.01  13.37
         14.10  14.33  14.54  14.63  14.69  15.69  16.18  16.42  16.46  17.18
         17.71  17.85  18.72  18.94  19.47  20.81  21.91  22.33  23.28  23.42
         23.84  24.05  24.83  25.18  26.47  26.60  32.93  37.78  39.10  41.25
         44.12  54.57  54.66  56.97  58.59  64.10  65.80  67.81  67.99  69.18
         73.44  86.51  89.25  90.67
  93  1 -16.58 -15.90 -14.72 -14.37 -12.51 -12.12 -10.68  -9.96  -9.69  -9.63
         -8.57  -8.34  -8.12  -7.86  -7.61  -6.66  -3.53  -3.50  -3.03  -2.39
         -2.16  -1.89  -1.87  -1.07  -1.04  -0.88  -0.65  -0.54   0.44   0.46
          1.13   1.90   1.91   1.95   2.56   3.47   3.94   3.96   4.59   5.57
          5.68   5.70   7.49   7.84   8.20   8.49   8.89   9.27   9.48  10.14
         10.41  10.99  11.06  11.31  11.44  11.76  12.04  12.41  13.00  13.33
         14.09  14.29  14.53  14.64  14.69  15.74  16.22  16.42  16.45  17.18
         17.71  17.86  18.75  18.95  19.48  20.82  21.91  22.30  23.29  23.43
         23.86  24.03  24.80  25.20  26.46  26.64  33.06  37.84  39.12  41.19
         44.30  54.38  54.55  56.80  58.59  64.18  65.83  67.88  68.10  69.19
         73.58  86.57  89.34  90.62
  94  1 -16.37 -15.72 -14.80 -14.79 -12.44 -12.44 -11.39 -10.59  -9.19  -9.19
         -8.15  -7.84  -7.84  -7.52  -6.99  -6.97  -3.64  -3.40  -3.27  -3.27
         -2.31  -1.69  -1.69  -1.50  -1.40  -0.69  -0.55   0.32   0.32   0.45
          0.68   0.68   2.75   2.75   3.23   3.24   4.78   4.92   5.06   5.34
          5.41   5.41   6.45   6.46   7.25   8.13   8.78   9.15   9.17   9.17
          9.32   9.33  11.09  11.41  11.41  11.78  13.07  13.32  13.51  13.51
         13.63  14.77  15.03  15.03  16.23  16.23  16.66  16.77  17.25  17.51
         17.51  17.90  17.91  19.29  19.29  19.33  20.91  22.28  22.43  23.96
         24.62  24.62  25.47  27.53  28.12  28.12  32.74  33.55  36.55  36.55
         41.87  49.38  56.27  56.28  57.32  62.23  64.25  69.01  69.03  70.11
         81.74  86.98  87.01  94.71
  95  1 -15.96 -15.40 -15.40 -15.04 -12.48 -12.08 -12.07 -11.44  -8.71  -8.27
         -8.27  -7.54  -7.28  -7.25  -7.25  -6.67  -3.50  -3.47  -3.09  -3.09
         -2.40  -2.40  -2.02  -1.98  -1.55  -1.18  -1.05  -1.05   1.20   1.20
          2.02   2.20   2.39   3.07   3.45   3.89   3.90   4.27   4.27   4.49
          5.12   6.95   6.96   7.15   7.15   7.66   7.99   8.63   8.82   8.83
          8.97   9.23   9.29  10.07  10.50  10.50  13.85  14.11  14.11  15.09
         15.10  15.15  15.59  15.84  15.90  16.00  16.63  16.64  17.78  18.43
         18.45  18.46  19.10  19.10  19.42  19.92  20.61  20.61  21.30  21.94
         27.04  27.27  27.27  29.03  29.12  32.60  32.61  34.71  40.02  41.78
         41.79  48.14  55.78  55.82  58.74  59.62  65.05  76.63  76.63  80.88
         81.99  82.01  90.34  94.72
  96  1 -15.96 -15.41 -15.40 -15.03 -12.48 -12.08 -12.07 -11.43  -8.70  -8.28
         -8.26  -7.55  -7.29  -7.25  -7.24  -6.69  -3.53  -3.48  -3.09  -3.07
         -2.39  -2.39  -2.03  -1.99  -1.55  -1.18  -1.05  -1.03   1.22   1.24
          2.02   2.20   2.43   3.05   3.43   3.88   3.88   4.24   4.26   4.49
          5.15   6.93   6.93   7.11   7.13   7.66   8.01   8.61   8.82   8.82
          8.96   9.25   9.33  10.09  10.52  10.55  13.87  14.10  14.10  15.08
         15.10  15.17  15.61  15.87  15.93  16.00  16.58  16.59  17.77  18.42
         18.48  18.49  19.06  19.09  19.43  19.90  20.59  20.59  21.28  21.99
         27.00  27.24  27.30  29.00  29.13  32.58  32.60  34.68  39.96  41.76
         41.80  48.09  55.84  55.92  58.54  59.58  64.75  76.43  76.48  81.00
         81.95  82.05  90.41  93.87
  97  1 -15.96 -15.40 -15.40 -15.04 -12.49 -12.07 -12.07 -11.43  -8.70  -8.27
         -8.27  -7.56  -7.28  -7.26  -7.25  -6.68  -3.52  -3.46  -3.10  -3.10
         -2.40  -2.40  -2.03  -1.99  -1.53  -1.17  -1.04  -1.03   1.23   1.24
          2.04   2.22   2.40   3.05   3.42   3.88   3.88   4.24   4.24   4.47
          5.10   6.92   6.93   7.16   7.16   7.67   7.99   8.60   8.81   8.81
          8.96   9.27   9.31  10.11  10.56  10.56  13.88  14.12  14.12  15.11
         15.12  15.15  15.61  15.84  15.89  15.97  16.58  16.58  17.75  18.41
         18.46  18.48  19.10  19.10  19.42  19.91  20.59  20.59  21.28  21.96
         27.05  27.25  27.25  28.97  29.16  32.55  32.55  34.68  40.01  41.71
         41.73  48.22  55.53  55.57  58.65  59.67  64.88  76.44  76.44  80.81
         81.95  81.97  90.42  94.26
  98  1 -16.14 -15.51 -15.51 -14.98 -12.02 -11.38 -11.38 -10.57  -9.73  -9.23
         -9.23  -8.62  -7.41  -7.36  -7.35  -6.61  -3.62  -2.90  -2.69  -2.69
         -2.03  -2.03  -1.62  -1.43  -0.31  -0.31  -0.27  -0.12   0.23   0.23
          0.54   0.99   1.55   1.93   2.31   2.56   2.56   4.11   4.11   5.15
          5.74   7.71   7.71   7.98   8.54   8.54   9.39   9.56   9.79   9.88
          9.88  10.59  11.09  11.68  11.68  12.08  12.70  12.89  12.98  12.99
         13.57  13.77  13.78  14.49  15.01  15.25  15.25  15.49  17.59  18.43
         18.44  19.24  20.06  20.06  20.51  20.52  21.76  21.76  21.97  22.50
         25.47  26.08  26.22  26.22  27.99  36.08  36.08  41.29  44.77  44.79
         51.39  51.47  54.38  54.40  59.83  61.69  63.44  69.83  69.84  81.53
         81.54  82.44  85.08  88.07
  99  1 -16.14 -15.51 -15.51 -14.98 -12.01 -11.38 -11.38 -10.58  -9.74  -9.23
         -9.23  -8.61  -7.41  -7.36  -7.35  -6.60  -3.62  -2.89  -2.69  -2.69
         -2.01  -2.01  -1.61  -1.41  -0.34  -0.33  -0.28  -0.14   0.22   0.22
          0.53   0.98   1.58   1.94   2.31   2.59   2.59   4.11   4.11   5.17
          5.75   7.71   7.71   7.98   8.55   8.55   9.38   9.55   9.76   9.92
          9.92  10.60  11.13  11.66  11.66  12.05  12.70  12.88  12.94  12.94
         13.53  13.76  13.76  14.49  15.03  15.30  15.31  15.50  17.59  18.43
         18.44  19.27  20.06  20.06  20.51  20.53  21.78  21.78  21.98  22.48
         25.46  26.07  26.23  26.23  28.01  36.09  36.10  41.30  44.89  44.90
         51.43  51.53  54.37  54.38  59.94  61.49  63.53  70.13  70.15  81.55
         81.56  82.48  85.04  87.99
 100  1 -15.96 -15.40 -15.40 -15.04 -12.48 -12.08 -12.07 -11.44  -8.71  -8.27
         -8.27  -7.54  -7.28  -7.25  -7.25  -6.67  -3.50  -3.47  -3.09  -3.09
         -2.40  -2.40  -2.02  -1.98  -1.55  -1.18  -1.05  -1.05   1.20   1.20
          2.02   2.20   2.39   3.07   3.45   3.89   3.90   4.27   4.27   4.49
          5.12   6.95   6.96   7.15   7.15   7.66   7.99   8.63   8.82   8.83
          8.97   9.23   9.29  10.07  10.50  10.50  13.85  14.11  14.11  15.09
         15.10  15.15  15.59  15.84  15.90  16.00  16.63  16.64  17.78  18.43
         18.45  18.46  19.10  19.10  19.42  19.92  20.61  20.61  21.30  21.94
         27.04  27.27  27.27  29.03  29.12  32.60  32.61  34.71  40.02  41.78
         41.79  48.14  55.78  55.82  58.74  59.62  65.05  76.63  76.63  80.88
         81.99  82.01  90.34  94.72
 101  1 -15.64 -15.27 -15.27 -15.26 -12.58 -12.58 -12.58 -12.18  -7.50  -7.50
         -7.49  -7.07  -7.07  -7.07  -6.83  -6.83  -4.14  -3.68  -3.68  -3.68
         -2.31  -2.31  -2.31  -2.16  -2.16  -1.88  -1.87  -1.87   2.69   2.69
          2.69   3.13   3.99   3.99   4.04   4.05   4.05   5.02   5.35   5.35
          5.35   6.14   6.14   6.14   6.27   6.27   6.28   7.68   7.68   7.89
          7.89   7.89   8.70   8.70   8.70   8.76  16.00  16.00  16.00  16.05
         16.53  16.53  16.76  16.76  16.77  17.45  17.46  17.46  18.22  18.22
         18.22  19.03  19.04  19.04  19.49  19.50  19.50  20.11  20.11  21.94
         28.52  28.53  28.53  30.01  30.01  30.09  30.09  30.10  52.15  52.15
         52.16  56.73  61.83  61.84  61.84  71.71  71.71  71.73  74.56  74.56
         87.32  87.32  87.37 103.09
 102  1 -15.63 -15.28 -15.27 -15.27 -12.59 -12.58 -12.58 -12.17  -7.49  -7.49
         -7.48  -7.08  -7.07  -7.06  -6.85  -6.84  -4.16  -3.68  -3.68  -3.66
         -2.31  -2.30  -2.29  -2.17  -2.17  -1.87  -1.87  -1.86   2.71   2.72
          2.72   3.11   3.99   4.02   4.04   4.04   4.04   5.03   5.32   5.33
          5.33   6.12   6.12   6.12   6.25   6.25   6.26   7.67   7.71   7.90
          7.91   7.91   8.70   8.73   8.73   8.78  15.97  16.01  16.01  16.08
         16.52  16.56  16.77  16.79  16.79  17.42  17.42  17.42  18.16  18.22
         18.22  19.05  19.05  19.06  19.48  19.48  19.48  20.08  20.10  22.03
         28.48  28.48  28.53  29.95  30.00  30.11  30.12  30.13  52.07  52.09
         52.32  56.73  61.53  61.59  62.01  71.79  71.88  71.89  73.60  74.10
         87.22  87.22  87.24 102.83
 103  1 -15.96 -15.41 -15.40 -15.03 -12.48 -12.08 -12.07 -11.43  -8.70  -8.28
         -8.26  -7.55  -7.29  -7.25  -7.24  -6.69  -3.53  -3.48  -3.09  -3.07
         -2.39  -2.39  -2.03  -1.99  -1.55  -1.18  -1.05  -1.03   1.22   1.24
          2.02   2.20   2.43   3.05   3.43   3.88   3.88   4.24   4.26   4.49
          5.15   6.93   6.93   7.11   7.13   7.66   8.01   8.61   8.82   8.82
          8.96   9.25   9.33  10.09  10.52  10.55  13.87  14.10  14.10  15.08
         15.10  15.17  15.61  15.87  15.93  16.00  16.58  16.59  17.77  18.42
         18.48  18.49  19.06  19.09  19.43  19.90  20.59  20.59  21.28  21.99
         27.00  27.24  27.30  29.00  29.13  32.58  32.60  34.68  39.96  41.76
         41.80  48.09  55.84  55.92  58.54  59.58  64.75  76.43  76.48  81.00
         81.95  82.05  90.41  93.87
 104  1 -16.14 -15.51 -15.51 -14.97 -12.01 -11.39 -11.38 -10.57  -9.73  -9.23
         -9.22  -8.61  -7.42  -7.34  -7.34  -6.62  -3.64  -2.91  -2.67  -2.67
         -2.02  -2.01  -1.62  -1.43  -0.32  -0.31  -0.28  -0.14   0.23   0.24
          0.52   0.97   1.55   1.92   2.34   2.58   2.60   4.07   4.08   5.19
          5.78   7.67   7.68   7.97   8.55   8.56   9.39   9.56   9.79   9.89
          9.91  10.61  11.11  11.66  11.66  12.07  12.71  12.89  12.95  12.97
         13.56  13.75  13.75  14.54  15.02  15.25  15.26  15.51  17.63  18.45
         18.46  19.23  20.04  20.06  20.48  20.54  21.77  21.77  21.96  22.50
         25.44  26.05  26.23  26.26  27.99  36.07  36.10  41.23  44.86  44.89
         51.15  51.61  54.53  54.66  59.86  61.69  63.26  69.87  69.89  81.44
         81.49  82.57  85.09  88.11
 105  1 -16.14 -15.51 -15.51 -14.97 -12.01 -11.39 -11.38 -10.57  -9.73  -9.23
         -9.22  -8.61  -7.42  -7.34  -7.34  -6.62  -3.64  -2.91  -2.67  -2.67
         -2.02  -2.01  -1.62  -1.43  -0.32  -0.31  -0.28  -0.14   0.23   0.24
          0.52   0.97   1.55   1.92   2.34   2.58   2.60   4.07   4.08   5.19
          5.78   7.67   7.68   7.97   8.55   8.56   9.39   9.56   9.79   9.89
          9.91  10.61  11.11  11.66  11.66  12.07  12.71  12.89  12.95  12.97
         13.56  13.75  13.75  14.54  15.02  15.25  15.26  15.51  17.63  18.45
         18.46  19.23  20.04  20.06  20.48  20.54  21.77  21.77  21.96  22.50
         25.44  26.05  26.23  26.26  27.99  36.07  36.10  41.23  44.86  44.89
         51.15  51.61  54.53  54.66  59.86  61.69  63.26  69.87  69.89  81.44
         81.49  82.57  85.09  88.11
 106  1 -15.96 -15.41 -15.40 -15.03 -12.48 -12.08 -12.07 -11.43  -8.70  -8.28
         -8.26  -7.55  -7.29  -7.25  -7.24  -6.69  -3.53  -3.48  -3.09  -3.07
         -2.39  -2.39  -2.03  -1.99  -1.55  -1.18  -1.05  -1.03   1.22   1.24
          2.02   2.20   2.43   3.05   3.43   3.88   3.88   4.24   4.26   4.49
          5.15   6.93   6.93   7.11   7.13   7.66   8.01   8.61   8.82   8.82
          8.96   9.25   9.33  10.09  10.52  10.55  13.87  14.10  14.10  15.08
         15.10  15.17  15.61  15.87  15.93  16.00  16.58  16.59  17.77  18.42
         18.48  18.49  19.06  19.09  19.43  19.90  20.59  20.59  21.28  21.99
         27.00  27.24  27.30  29.00  29.13  32.58  32.60  34.68  39.96  41.76
         41.80  48.09  55.84  55.92  58.54  59.58  64.75  76.43  76.48  81.00
         81.95  82.05  90.41  93.87
 107  1 -15.63 -15.28 -15.27 -15.27 -12.59 -12.58 -12.58 -12.17  -7.49  -7.49
         -7.48  -7.08  -7.07  -7.06  -6.85  -6.84  -4.16  -3.68  -3.68  -3.66
         -2.31  -2.30  -2.29  -2.17  -2.17  -1.87  -1.87  -1.86   2.71   2.72
          2.72   3.11   3.99   4.02   4.04   4.04   4.04   5.03   5.32   5.33
          5.33   6.12   6.12   6.12   6.25   6.25   6.26   7.67   7.71   7.90
          7.91   7.91   8.70   8.73   8.73   8.78  15.97  16.01  16.01  16.08
         16.52  16.56  16.77  16.79  16.79  17.42  17.42  17.42  18.16  18.22
         18.22  19.05  19.05  19.06  19.48  19.48  19.48  20.08  20.10  22.03
         28.48  28.48  28.53  29.95  30.00  30.11  30.12  30.13  52.07  52.09
         52.32  56.73  61.53  61.59  62.01  71.79  71.88  71.89  73.60  74.10
         87.22  87.22  87.24 102.83
 108  1 -15.63 -15.28 -15.27 -15.27 -12.59 -12.58 -12.58 -12.17  -7.49  -7.49
         -7.48  -7.08  -7.07  -7.06  -6.85  -6.84  -4.16  -3.68  -3.68  -3.66
         -2.31  -2.30  -2.29  -2.17  -2.17  -1.87  -1.87  -1.86   2.71   2.72
          2.72   3.11   3.99   4.02   4.04   4.04   4.04   5.03   5.32   5.33
          5.33   6.12   6.12   6.12   6.25   6.25   6.26   7.67   7.71   7.90
          7.91   7.91   8.70   8.73   8.73   8.78  15.97  16.01  16.01  16.08
         16.52  16.56  16.77  16.79  16.79  17.42  17.42  17.42  18.16  18.22
         18.22  19.05  19.05  19.06  19.48  19.48  19.48  20.08  20.10  22.03
         28.48  28.48  28.53  29.95  30.00  30.11  30.12  30.13  52.07  52.09
         52.32  56.73  61.53  61.59  62.01  71.79  71.88  71.89  73.60  74.10
         87.22  87.22  87.24 102.83
siesta: Fermi energy =      -5.338747 eV

siesta: Program's energy decomposition (eV):
siesta: Ebs     =      -344.274293
siesta: Eions   =      1510.441798
siesta: Ena     =       465.243754
siesta: Ekin    =       325.203145
siesta: Enl     =       111.036068
siesta: DEna    =         5.078032
siesta: DUscf   =         1.528874
siesta: DUext   =         0.000000
siesta: Exc     =      -259.619441
siesta: eta*DQ  =         0.000000
siesta: Emadel  =         0.000000
siesta: Emeta   =         0.000000
siesta: Emolmec =         0.000000
siesta: Ekinion =         0.000000
siesta: Eharris =      -861.971622
siesta: Etot    =      -861.971366
siesta: FreeEng =      -861.971366

siesta: Final energy (eV):
siesta:  Band Struct. =    -344.274293
siesta:       Kinetic =     325.203145
siesta:       Hartree =      57.821929
siesta:    Ext. field =       0.000000
siesta:   Exch.-corr. =    -259.619441
siesta:  Ion-electron =    -446.608745
siesta:       Ion-ion =    -538.768255
siesta:       Ekinion =       0.000000
siesta:         Total =    -861.971366

siesta: Stress tensor (static) (eV/Ang**3):
siesta:    -0.000609    0.000232    0.000232
siesta:     0.000232   -0.000609    0.000232
siesta:     0.000232    0.000232   -0.000610

siesta: Constrained stress tensor (static) (eV/Ang**3):
siesta:    -0.000609    0.000232    0.000232
siesta:     0.000232   -0.000609    0.000232
siesta:     0.000232    0.000232   -0.000610

siesta: Cell volume =        161.027519 Ang**3

siesta: Pressure (static):
siesta:                Solid            Molecule  Units
siesta:           0.00000664          0.00000214  Ry/Bohr**3
siesta:           0.00060944          0.00019688  eV/Ang**3
siesta:           0.97644351          0.31543667  kBar
(Free)E+ p_basis*V_orbitals  =        -852.997762
(Free)Eharris+ p_basis*V_orbitals  =        -852.998845

* Maximum dynamic memory allocated : Node    0 =   101 MB

* Maximum memory occured during init_pulay_arrrays            

timer: CPU execution times:
timer:  Routine       Calls   Time/call    Tot.time        %
timer:  siesta            1    1663.152    1663.152   100.00
timer:  Setup             1       0.136       0.136     0.01
timer:  bands             3       0.553       1.660     0.10
timer:  writewave         3       0.007       0.020     0.00
timer:  KSV_init          1       0.000       0.000     0.00
timer:  IterMD           16     103.827    1661.228    99.88
timer:  hsparse          16       0.222       3.552     0.21
timer:  overlap          16       0.124       1.988     0.12
timer:  IterSCF          73      18.542    1353.553    81.38
timer:  kinefsm          32       0.127       4.077     0.25
timer:  nlefsm           32       4.942     158.134     9.51
timer:  DHSCF            89      10.281     914.974    55.01
timer:  DHSCF1           16       0.048       0.764     0.05
timer:  DHSCF2           16       2.194      35.110     2.11
timer:  REORD           566       0.000       0.032     0.00
timer:  POISON          105       0.005       0.511     0.03
timer:  DHSCF3           89       9.059     806.247    48.48
timer:  rhoofd           89       4.162     370.432    22.27
timer:  cellXC           89       0.011       1.020     0.06
timer:  vmat             89       4.879     434.231    26.11
timer:  MolMec           32       0.000       0.000     0.00
timer:  diagon           73       7.838     572.163    34.40
timer:  c-eigval       9137       0.019     173.031    10.40
timer:  c-buildHS      9137       0.014     130.415     7.84
timer:  cdiag         18174       0.007     130.899     7.87
timer:  cdiag1        18174       0.001       9.558     0.57
timer:  cdiag2        18174       0.002      33.829     2.03
timer:  cdiag3        18174       0.005      84.201     5.06
timer:  cdiag4        18174       0.000       2.763     0.17
timer:  c-eigvec       9037       0.024     217.936    13.10
timer:  c-buildD       9036       0.020     181.916    10.94
timer:  DHSCF4           16       4.551      72.809     4.38
timer:  dfscf            16       4.384      70.140     4.22
timer:  overfsm          16       0.123       1.960     0.12
timer:  optical           1       0.000       0.000     0.00
  

elaps: ELAPSED times:
elaps:  Routine       Calls   Time/call    Tot.time        %
elaps:  siesta            1    1673.762    1673.762   100.00
elaps:  Setup             1       0.137       0.137     0.01
elaps:  bands             3       0.555       1.666     0.10
elaps:  writewave         3       0.007       0.020     0.00
elaps:  KSV_init          1       0.000       0.000     0.00
elaps:  IterMD           16     104.489    1671.831    99.88
elaps:  hsparse          16       0.223       3.564     0.21
elaps:  overlap          16       0.125       1.996     0.12
elaps:  IterSCF          73      18.661    1362.283    81.39
elaps:  kinefsm          32       0.128       4.094     0.24
elaps:  nlefsm           32       4.969     159.001     9.50
elaps:  DHSCF            89      10.346     920.782    55.01
elaps:  DHSCF1           16       0.048       0.769     0.05
elaps:  DHSCF2           16       2.206      35.297     2.11
elaps:  REORD           566       0.000       0.045     0.00
elaps:  POISON          105       0.005       0.480     0.03
elaps:  DHSCF3           89       9.117     811.405    48.48
elaps:  rhoofd           89       4.190     372.954    22.28
elaps:  cellXC           89       0.012       1.029     0.06
elaps:  vmat             89       4.909     436.900    26.10
elaps:  MolMec           32       0.000       0.000     0.00
elaps:  diagon           73       7.891     576.033    34.42
elaps:  c-eigval       9137       0.019     174.424    10.42
elaps:  c-buildHS      9137       0.014     131.499     7.86
elaps:  cdiag         18174       0.007     131.883     7.88
elaps:  cdiag1        18174       0.001       9.652     0.58
elaps:  cdiag2        18174       0.002      34.401     2.06
elaps:  cdiag3        18174       0.005      84.759     5.06
elaps:  cdiag4        18174       0.000       2.570     0.15
elaps:  c-eigvec       9037       0.024     219.296    13.10
elaps:  c-buildD       9036       0.020     183.111    10.94
elaps:  DHSCF4           16       4.580      73.286     4.38
elaps:  dfscf            16       4.413      70.604     4.22
elaps:  overfsm          16       0.123       1.965     0.12
elaps:  optical           1       0.001       0.001     0.00
  
>> End of run:  10-MAY-2013   1:37:25
