Siesta Version:                                        siesta-3.2
Architecture  : x86_64-unknown-linux-gnu--unknown
Compiler flags: f95 -g -O2
SERIAL version

* Running in serial mode
>> Start of run:   9-MAY-2013  22:06:17

                           ***********************       
                           *  WELCOME TO SIESTA  *       
                           ***********************       

reinit: Reading from standard input
************************** Dump of input data file ****************************
# FDF for silicon
SystemName             silicon          # Descriptive name of the system
SystemLabel            si          # Short name for naming files
NumberOfAtoms 8
NumberOfSpecies 1
%block ChemicalSpeciesLabel
1 14 Si
%endblock ChemicalSpeciesLabel
LatticeConstant  5.70 Ang
##Basis set Definition##
PAO.BasisType          split        # Type of PAO basis set
PAO.EnergyShift        50 meV
PAO.BasisSize          DZP          # (DZP) Double-z + polarization
#%block LatticeVectors
#0.500 0.500 0.000
#0.500 0.000 0.500
#0.000 0.500 0.500
#%endblock LatticeVectors
AtomicCoordinatesFormat NotScaledCartesianAng
%block AtomicCoordinatesAndAtomicSpecies
	0.00000000	0.00000000	0.00000000  1 Si  1
	1.36000000	1.36000000	1.36000000  1 Si  2
	2.72000000	2.72000000	0.00000000  1 Si  3
	4.08000000	4.08000000	1.36000000  1 Si  4
	2.72000000	0.00000000	2.72000000  1 Si  5
	4.08000000	1.36000000	4.08000000  1 Si  6
	0.00000000	2.72000000	2.72000000  1 Si  7
	1.36000000	4.08000000	4.08000000  1 Si  8
%endblock AtomicCoordinatesAndAtomicSpecies
MeshCutoff 100.0 Ry # 100, 120, 180, 260
kgrid_cutoff 30.0 Bohr # 30, 35, 40, 45
DM.Mixingweight  0.3
DM.NumberPulay    3
DM.Tolerance      1.d-3
DM.UseSaveDM      true
ElectronicTemperature 25 meV
SolutionMethod    diagon
XC.functional      GGA	    # Generalized Gradient Approximation
XC.authors        PBE          # Perdew-Burke-Ernzerhof
SpinPolarized     false
MD.TypeOfRun           CG           # Type of dynamics:
MD.VariableCell        true
MD.NumCGsteps          100          # Number of CG steps for coordinate optimization
MD.MaxCGDispl          0.2 Bohr     # Maximum atomic displacement
                                    #   in one CG step (Bohr)
MD.MaxForceTol         0.04 eV/Ang  # Tolerance in the maximum
                                    #   atomic force (Ry/Bohr)
				
##Output Specification##
WriteMDhistory         true         # Trajectory information
WriteCoorStep          true
WriteCoorXmol          true
WriteMDXmol            true
WriteEigenvalues true
WriteKbands      true
WriteBands       true
WriteWaveFunctions true
WriteMullikenPoP   1
%block BandLines
1	1.000	1.000 1.000 L
25	0.000	0.000	0.000 \Gamma
30	2.000	0.000	0.000 X
10	2.000	0.500	0.500 U
35	0.000	0.000	0.000 \Gamma
%endblock BandLines
%block WaveFuncKPoints
0.0 0.0 0.0 from 1 to 50 # > 16 = 4/2*8 (Valenzelektronen/2, Atomzahl ...)
%endblock WaveFuncKpoints
************************** End of input data file *****************************

reinit: -----------------------------------------------------------------------
reinit: System Name: silicon
reinit: -----------------------------------------------------------------------
reinit: System Label: si                                                          
reinit: -----------------------------------------------------------------------

initatom: Reading input for the pseudopotentials and atomic orbitals ----------
Siesta Version:                                        siesta-3.2
Architecture  : x86_64-unknown-linux-gnu--unknown
Compiler flags: f95 -g -O2
SERIAL version

* Running in serial mode
>> Start of run:   9-MAY-2013  22:06:17

                           ***********************       
                           *  WELCOME TO SIESTA  *       
                           ***********************       

reinit: Reading from standard input
************************** Dump of input data file ****************************
************************** End of input data file *****************************

reinit: -----------------------------------------------------------------------
reinit: System Name: 
reinit: -----------------------------------------------------------------------
reinit: System Label: siesta                                                      
reinit: -----------------------------------------------------------------------

initatom: Reading input for the pseudopotentials and atomic orbitals ----------
No species found!!!
ERROR STOP from Node:    0
 Species number:            1  Label: Si Atomic number:          14
Ground state valence configuration:   3s02  3p02
Reading pseudopotential information in formatted form from Si.psf

Valence configuration for pseudopotential generation:
3s( 2.00) rc: 1.75
3p( 2.00) rc: 1.94
3d( 0.00) rc: 2.09
4f( 0.00) rc: 2.09
For Si, standard SIESTA heuristics set lmxkb to 3
 (one more than the basis l, including polarization orbitals).
Use PS.lmax or PS.KBprojectors blocks to override.

<basis_specs>
===============================================================================
Si                   Z=  14    Mass=  28.090        Charge= 0.17977+309
Lmxo=1 Lmxkb= 3    BasisType=split      Semic=F
L=0  Nsemic=0  Cnfigmx=3
          n=1  nzeta=2  polorb=0
            splnorm:   0.15000    
               vcte:    0.0000    
               rinn:    0.0000    
                rcs:    0.0000      0.0000    
            lambdas:    1.0000      1.0000    
L=1  Nsemic=0  Cnfigmx=3
          n=1  nzeta=2  polorb=1
            splnorm:   0.15000    
               vcte:    0.0000    
               rinn:    0.0000    
                rcs:    0.0000      0.0000    
            lambdas:    1.0000      1.0000    
-------------------------------------------------------------------------------
L=0  Nkbl=1  erefs: 0.17977+309
L=1  Nkbl=1  erefs: 0.17977+309
L=2  Nkbl=1  erefs: 0.17977+309
L=3  Nkbl=1  erefs: 0.17977+309
===============================================================================
</basis_specs>

atom: Called for Si                    (Z =  14)

read_vps: Pseudopotential generation method:
read_vps: ATM3      Troullier-Martins                       
Total valence charge:    4.00000

read_vps: Pseudopotential includes a core correction:
read_vps: Pseudo-core for xc-correction

xc_check: Exchange-correlation functional:
xc_check: GGA Perdew, Burke & Ernzerhof 1996
V l=0 = -2*Zval/r beyond r=  2.0104
V l=1 = -2*Zval/r beyond r=  2.0873
V l=2 = -2*Zval/r beyond r=  2.1670
V l=3 = -2*Zval/r beyond r=  2.1670
All V_l potentials equal beyond r=  2.0613
This should be close to max(r_c) in ps generation
All pots = -2*Zval/r beyond r=  2.1670

VLOCAL1: 99.0% of the norm of Vloc inside     10.216 Ry
VLOCAL1: 99.9% of the norm of Vloc inside     23.282 Ry
atom: Maximum radius for 4*pi*r*r*local-pseudopot. charge    2.45560
atom: Maximum radius for r*vlocal+2*Zval:    2.14012
GHOST: No ghost state for L =  0
GHOST: No ghost state for L =  1
GHOST: No ghost state for L =  2
GHOST: No ghost state for L =  3

KBgen: Kleinman-Bylander projectors: 
   l= 0   rc=  2.306811   el= -0.791441   Ekb=  5.289775   kbcos=  0.291595
   l= 1   rc=  2.394965   el= -0.300632   Ekb=  1.944256   kbcos=  0.287657
   l= 2   rc=  2.549439   el=  0.001958   Ekb= -1.788485   kbcos= -0.056492
   l= 3   rc=  2.782581   el=  0.003046   Ekb= -0.472620   kbcos= -0.006203

KBgen: Total number of  Kleinman-Bylander projectors:   16
atom: -------------------------------------------------------------------------

atom: SANKEY-TYPE ORBITALS:
atom: Selected multiple-zeta basis: split     

SPLIT: Orbitals with angular momentum L= 0

SPLIT: Basis orbitals for state 3s

SPLIT: PAO cut-off radius determined from an
SPLIT: energy shift=  0.003675 Ry

   izeta = 1
                 lambda =    1.000000
                     rc =    6.116033
                 energy =   -0.788343
                kinetic =    0.528041
    potential(screened) =   -1.316383
       potential(ionic) =   -3.704743

   izeta = 2
                 rmatch =    4.530823
              splitnorm =    0.150000
                 energy =   -0.692892
                kinetic =    0.848665
    potential(screened) =   -1.541557
       potential(ionic) =   -4.044985

SPLIT: Orbitals with angular momentum L= 1

SPLIT: Basis orbitals for state 3p

SPLIT: PAO cut-off radius determined from an
SPLIT: energy shift=  0.003675 Ry

   izeta = 1
                 lambda =    1.000000
                     rc =    7.853192
                 energy =   -0.297152
                kinetic =    0.797948
    potential(screened) =   -1.095101
       potential(ionic) =   -3.275753

   izeta = 2
                 rmatch =    5.330310
              splitnorm =    0.150000
                 energy =   -0.228170
                kinetic =    1.148579
    potential(screened) =   -1.376749
       potential(ionic) =   -3.739005

POLgen: Perturbative polarization orbital with L=  2

POLgen: Polarization orbital for state 3p

   izeta = 1
                     rc =    7.853192
                 energy =    0.340222
                kinetic =    1.096718
    potential(screened) =   -0.756496
       potential(ionic) =   -2.716423
atom: Total number of Sankey-type orbitals: 13

atm_pop: Valence configuration (for local Pseudopot. screening):
 3s( 2.00)                                                            
 3p( 2.00)                                                            
Vna: chval, zval:    4.00000   4.00000

Vna:  Cut-off radius for the neutral-atom potential:   7.853192
comcore: Pseudo-core radius Rcore=  2.999314

atom: _________________________________________________________________________

prinput: Basis input ----------------------------------------------------------

PAO.BasisType split     

%block ChemicalSpeciesLabel
    1   14 Si                      # Species index, atomic number, species label
%endblock ChemicalSpeciesLabel

%block PAO.Basis                 # Define Basis set
Si                    2                    # Species label, number of l-shells
 n=3   0   2                         # n, l, Nzeta 
   6.116      4.531   
   1.000      1.000   
 n=3   1   2 P   1                   # n, l, Nzeta, Polarization, NzetaPol
   7.853      5.330   
   1.000      1.000   
%endblock PAO.Basis

prinput: ----------------------------------------------------------------------

coor:   Atomic-coordinates input format  =     Cartesian coordinates
coor:                                          (in Angstroms)

siesta: Atomic coordinates (Bohr) and species
siesta:      0.00000   0.00000   0.00000  1        1
siesta:      2.57003   2.57003   2.57003  1        2
siesta:      5.14006   5.14006   0.00000  1        3
siesta:      7.71009   7.71009   2.57003  1        4
siesta:      5.14006   0.00000   5.14006  1        5
siesta:      7.71009   2.57003   7.71009  1        6
siesta:      0.00000   5.14006   5.14006  1        7
siesta:      2.57003   7.71009   7.71009  1        8

siesta: System type = bulk      

initatomlists: Number of atoms, orbitals, and projectors:      8   104   128

siesta: ******************** Simulation parameters ****************************
siesta:
siesta: The following are some of the parameters of the simulation.
siesta: A complete list of the parameters used, including default values,
siesta: can be found in file out.fdf
siesta:
redata: Non-Collinear-spin run           =     F
redata: SpinPolarized (Up/Down) run      =     F
redata: Number of spin components        =     1
redata: Long output                      =     F
redata: Number of Atomic Species         =        1
redata: Charge density info will appear in .RHO file
redata: Write Mulliken Pop.              =     Atomic and Orbital charges
redata: Mesh Cutoff                      =   100.0000  Ry
redata: Net charge of the system         =     0.0000 |e|
redata: Max. number of SCF Iter          =       50
redata: Performing Pulay mixing using    =     3 iterations
redata: Mix DM in first SCF step ?       =     F
redata: Write Pulay info on disk?        =     F
redata: Discard 1st Pulay DM after  kick =     F
redata: New DM Mixing Weight             =     0.3000
redata: New DM Occupancy tolerance       = 0.000000000001
redata: No kicks to SCF
redata: DM Mixing Weight for Kicks       =     0.5000
redata: DM Tolerance for SCF             =     0.001000
redata: Require Energy convergence for SCF =     F
redata: DM Energy tolerance for SCF      =     0.000100 eV
redata: Require Harris convergence for SCF =     F
redata: DM Harris energy tolerance for SCF =     0.000100 eV
redata: Using Saved Data (generic)   =     F
redata: Use continuation files for DM    =     T
redata: Neglect nonoverlap interactions  =     F
redata: Method of Calculation            =     Diagonalization
redata: Divide and Conquer               =     T
redata: Electronic Temperature           =     0.0018  Ry
redata: Fix the spin of the system       =     F
redata: Dynamics option                  =     CG coord. optimization
redata: Variable cell                    =     T
redata: Use continuation files for CG    =     F
redata: Max atomic displ per move        =     0.2000  Bohr
redata: Maximum number of CG moves       =      100
redata: Force tolerance                  =     0.0016  Ry/Bohr
redata: Stress tolerance                 =     1.0000  GPa
redata: ***********************************************************************
Total number of electrons:    32.000000
Total ionic charge:    32.000000
 Kpoints in:          108 . Kpoints trimmed:          108

siesta: k-grid: Number of k-points =   108
siesta: k-grid: Cutoff (effective) =    17.100 Ang
siesta: k-grid: Supercell and displacements
siesta: k-grid:    0   6   0      0.500
siesta: k-grid:    0   0   6      0.500
siesta: k-grid:    6   0   0      0.500
Naive supercell factors:     4    4    4

superc: Internal auxiliary supercell:     4 x     4 x     4  =      64
superc: Number of atoms, orbitals, and projectors:    512   6656   8192

* Maximum dynamic memory allocated =     1 MB

siesta:                 ==============================
                            Begin CG move =      0
                        ==============================

outcoor: Atomic coordinates (Ang):                          
    0.00000000    0.00000000    0.00000000   1       1  Si
    1.36000000    1.36000000    1.36000000   1       2  Si
    2.72000000    2.72000000    0.00000000   1       3  Si
    4.08000000    4.08000000    1.36000000   1       4  Si
    2.72000000    0.00000000    2.72000000   1       5  Si
    4.08000000    1.36000000    4.08000000   1       6  Si
    0.00000000    2.72000000    2.72000000   1       7  Si
    1.36000000    4.08000000    4.08000000   1       8  Si

superc: Internal auxiliary supercell:     4 x     4 x     4  =      64
superc: Number of atoms, orbitals, and projectors:    512   6656   8192

outcell: Unit cell vectors (Ang):
        5.700000    0.000000    0.000000
        0.000000    5.700000    0.000000
        0.000000    0.000000    5.700000

outcell: Cell vector modules (Ang)   :    5.700000    5.700000    5.700000
outcell: Cell angles (23,13,12) (deg):     90.0000     90.0000     90.0000
outcell: Cell volume (Ang**3)        :    185.1930
New_DM. Step:     1
Initializing Density Matrix...

InitMesh: MESH =    36 x    36 x    36 =       46656
InitMesh: Mesh cutoff (required, used) =   100.000   110.245 Ry

* Maximum dynamic memory allocated =    62 MB

stepf: Fermi-Dirac step function

siesta: Program's energy decomposition (eV):
siesta: Ebs     =      -328.717561
siesta: Eions   =      1510.441798
siesta: Ena     =       476.296178
siesta: Ekin    =       288.667622
siesta: Enl     =       149.077114
siesta: DEna    =         0.000001
siesta: DUscf   =         0.000000
siesta: DUext   =         0.000000
siesta: Exc     =      -438.612035
siesta: eta*DQ  =         0.000000
siesta: Emadel  =         0.000000
siesta: Emeta   =         0.000000
siesta: Emolmec =         0.000000
siesta: Ekinion =         0.000000
siesta: Eharris =     -1029.487202
siesta: Etot    =     -1035.012919
siesta: FreeEng =     -1035.012919

siesta: iscf   Eharris(eV)      E_KS(eV)   FreeEng(eV)   dDmax  Ef(eV)
siesta:    1    -1029.4872    -1035.0129    -1035.0129  1.8084 -5.1250
timer: Routine,Calls,Time,% = IterSCF        1      13.977  96.39
elaps: Routine,Calls,Wall,% = IterSCF        1      14.051  96.31
siesta:    2    -1029.3544    -1029.3004    -1029.3004  0.0699 -4.9270
siesta:    3    -1029.3389    -1029.4674    -1029.4677  0.0316 -4.9317
siesta:    4    -1029.3369    -1029.3529    -1029.3530  0.0059 -4.9351
siesta:    5    -1029.3367    -1029.3351    -1029.3352  0.0015 -4.9377
siesta:    6    -1029.3367    -1029.3330    -1029.3331  0.0007 -4.9398

siesta: E_KS(eV) =            -1029.3345

siesta: E_KS - E_eggbox =     -1029.3345

siesta: Atomic forces (eV/Ang):
----------------------------------------
   Tot   -0.011433   -0.011433   -0.011434
----------------------------------------
   Max    1.759805
   Res    1.112952    sqrt( Sum f_i^2 / 3N )
----------------------------------------
   Max    1.759805    constrained

Stress-tensor-Voigt (kbar):       55.11       55.11       55.11      -12.98      -12.98      -12.98
(Free)E + p*V (eV/cell)    -1035.7041
Target enthalpy (eV/cell)    -1029.3346

siesta: Stress tensor (static) (eV/Ang**3):
         0.034394   -0.008100   -0.008100
        -0.008100    0.034394   -0.008100
        -0.008100   -0.008100    0.034394

siesta: Pressure (static):        -55.10554507  kBar

siesta: Stress tensor (total) (eV/Ang**3):
         0.034394   -0.008100   -0.008100
        -0.008100    0.034394   -0.008100
        -0.008100   -0.008100    0.034394

siesta: Pressure (total):        -55.10554507  kBar

mulliken: Mulliken Atomic and Orbital Populations:

Species: Si                  
Atom  Qatom  Qorb
               3s      3s      3py     3pz     3px     3py     3pz     3px     
               3Pdxy   3Pdyz   3Pdz2   3Pdxz   3Pdx2-y2
   1  4.045   0.873   0.464   0.399   0.399   0.399   0.382   0.382   0.382
              0.090   0.090   0.049   0.090   0.049
   2  3.992   0.552   0.619   0.230   0.230   0.230   0.534   0.534   0.534
              0.124   0.124   0.077   0.124   0.077
   3  3.984   0.653   0.569   0.300   0.243   0.300   0.471   0.509   0.471
              0.107   0.114   0.072   0.114   0.060
   4  4.003   0.761   0.518   0.315   0.380   0.315   0.450   0.400   0.450
              0.106   0.098   0.052   0.098   0.062
   5  3.984   0.653   0.569   0.243   0.300   0.300   0.509   0.471   0.471
              0.114   0.114   0.063   0.107   0.069
   6  4.003   0.761   0.518   0.380   0.315   0.315   0.400   0.450   0.450
              0.098   0.098   0.059   0.106   0.055
   7  3.984   0.653   0.569   0.300   0.300   0.243   0.471   0.471   0.509
              0.114   0.107   0.063   0.114   0.069
   8  4.003   0.761   0.518   0.315   0.315   0.380   0.450   0.450   0.400
              0.098   0.106   0.059   0.098   0.055

mulliken: Qtot =       32.000

cgvc: No target stress found, assuming hydrostatic MD.TargetPressure.

cgvc: Target stress (kBar)
cgvc:        -0.000       0.000       0.000
cgvc:         0.000      -0.000       0.000
cgvc:         0.000       0.000      -0.000

* Maximum dynamic memory allocated =    64 MB

siesta:                 ==============================
                            Begin CG move =      1
                        ==============================

outcoor: Atomic coordinates (Ang):                          
   -0.02698540   -0.02698539   -0.02698527   1       1  Si
    1.35331531    1.35331537    1.35331541   1       2  Si
    2.71332453    2.71332452   -0.02554119   1       3  Si
    4.09378601    4.09378600    1.36536292   1       4  Si
    2.71332450   -0.02554135    2.71332451   1       5  Si
    4.09378605    1.36536307    4.09378592   1       6  Si
   -0.02554131    2.71332448    2.71332455   1       7  Si
    1.36536306    4.09378600    4.09378588   1       8  Si
 Kpoints in:          108 . Kpoints trimmed:          108

siesta: k-grid: Number of k-points =   108
siesta: k-grid: Cutoff (effective) =    17.022 Ang
siesta: k-grid: Supercell and displacements
siesta: k-grid:    0   0   6      0.500
siesta: k-grid:    0   6   0      0.500
siesta: k-grid:    6   0   0      0.500
Naive supercell factors:     4    4    4

superc: Internal auxiliary supercell:     4 x     4 x     4  =      64
superc: Number of atoms, orbitals, and projectors:    512   6656   8192

outcell: Unit cell vectors (Ang):
        5.673970    0.006130    0.006130
        0.006130    5.673970    0.006130
        0.006130    0.006130    5.673970

outcell: Cell vector modules (Ang)   :    5.673977    5.673977    5.673977
outcell: Cell angles (23,13,12) (deg):     89.8761     89.8761     89.8761
outcell: Cell volume (Ang**3)        :    182.6668
New_DM. Step:     2
Re-using DM from previous geometry...
Re-using DM without extrapolation (not allowed)
Density Matrix sparsity pattern changed.

InitMesh: MESH =    36 x    36 x    36 =       46656
InitMesh: Mesh cutoff (required, used) =   100.000   111.259 Ry

siesta: iscf   Eharris(eV)      E_KS(eV)   FreeEng(eV)   dDmax  Ef(eV)
siesta:    1    -1029.9213    -1029.8866    -1029.8867  0.0347 -4.9435
siesta:    2    -1030.0530    -1029.8006    -1029.8006  0.0553 -4.9303
siesta:    3    -1029.8818    -1029.8613    -1029.8613  0.0184 -4.9391
siesta:    4    -1029.8818    -1029.8678    -1029.8678  0.0012 -4.9367
siesta:    5    -1029.8818    -1029.8720    -1029.8720  0.0008 -4.9367

siesta: E_KS(eV) =            -1029.8784

siesta: Atomic forces (eV/Ang):
----------------------------------------
   Tot    0.000320    0.000321    0.000313
----------------------------------------
   Max    1.152161
   Res    0.790523    sqrt( Sum f_i^2 / 3N )
----------------------------------------
   Max    1.152161    constrained

Stress-tensor-Voigt (kbar):       53.23       53.23       53.23       -5.57       -5.57       -5.57
(Free)E + p*V (eV/cell)    -1035.9472
Target enthalpy (eV/cell)    -1029.8784

siesta: Stress tensor (static) (eV/Ang**3):
         0.033223   -0.003477   -0.003477
        -0.003477    0.033223   -0.003477
        -0.003477   -0.003477    0.033223

siesta: Pressure (static):        -53.23041640  kBar

siesta: Stress tensor (total) (eV/Ang**3):
         0.033223   -0.003477   -0.003477
        -0.003477    0.033223   -0.003477
        -0.003477   -0.003477    0.033223

siesta: Pressure (total):        -53.23041640  kBar

mulliken: Mulliken Atomic and Orbital Populations:

Species: Si                  
Atom  Qatom  Qorb
               3s      3s      3py     3pz     3px     3py     3pz     3px     
               3Pdxy   3Pdyz   3Pdz2   3Pdxz   3Pdx2-y2
   1  4.030   0.828   0.484   0.370   0.370   0.370   0.407   0.407   0.407
              0.095   0.095   0.052   0.095   0.052
   2  3.993   0.583   0.602   0.246   0.246   0.246   0.520   0.520   0.520
              0.121   0.121   0.073   0.121   0.073
   3  3.991   0.661   0.564   0.296   0.248   0.296   0.475   0.508   0.475
              0.108   0.114   0.071   0.114   0.060
   4  4.002   0.739   0.527   0.308   0.352   0.308   0.458   0.424   0.458
              0.108   0.101   0.055   0.101   0.062
   5  3.991   0.661   0.564   0.248   0.296   0.296   0.508   0.475   0.475
              0.114   0.114   0.063   0.108   0.068
   6  4.002   0.739   0.527   0.352   0.308   0.308   0.424   0.458   0.458
              0.101   0.101   0.060   0.108   0.056
   7  3.991   0.661   0.564   0.296   0.296   0.248   0.475   0.475   0.508
              0.114   0.108   0.063   0.114   0.068
   8  4.002   0.739   0.527   0.308   0.308   0.352   0.458   0.458   0.424
              0.101   0.108   0.060   0.101   0.056

mulliken: Qtot =       32.000

* Maximum dynamic memory allocated =    70 MB

siesta:                 ==============================
                            Begin CG move =      2
                        ==============================

outcoor: Atomic coordinates (Ang):                          
   -0.06989021   -0.06989017   -0.06988988   1       1  Si
    1.34265406    1.34265421    1.34265430   1       2  Si
    2.70246106    2.70246104   -0.06578227   1       3  Si
    4.11546880    4.11546878    1.37412983   1       4  Si
    2.70246098   -0.06578266    2.70246101   1       5  Si
    4.11546890    1.37413023    4.11546857   1       6  Si
   -0.06578258    2.70246093    2.70246110   1       7  Si
    1.37413019    4.11546878    4.11546847   1       8  Si
 Kpoints in:          108 . Kpoints trimmed:          108

siesta: k-grid: Number of k-points =   108
siesta: k-grid: Cutoff (effective) =    16.897 Ang
siesta: k-grid: Supercell and displacements
siesta: k-grid:    0   0   6      0.500
siesta: k-grid:    0   6   0      0.500
siesta: k-grid:    6   0   0      0.500
Naive supercell factors:     4    4    4

superc: Internal auxiliary supercell:     4 x     4 x     4  =      64
superc: Number of atoms, orbitals, and projectors:    512   6656   8192

outcell: Unit cell vectors (Ang):
        5.632323    0.015939    0.015939
        0.015939    5.632323    0.015939
        0.015939    0.015939    5.632323

outcell: Cell vector modules (Ang)   :    5.632368    5.632368    5.632368
outcell: Cell angles (23,13,12) (deg):     89.6753     89.6753     89.6753
outcell: Cell volume (Ang**3)        :    178.6703
New_DM. Step:     3
Re-using DM from previous geometry...
Re-using DM without extrapolation (not allowed)
Density Matrix sparsity pattern changed.

InitMesh: MESH =    36 x    36 x    36 =       46656
InitMesh: Mesh cutoff (required, used) =   100.000   112.915 Ry

siesta: iscf   Eharris(eV)      E_KS(eV)   FreeEng(eV)   dDmax  Ef(eV)
siesta:    1    -1030.4757    -1030.6125    -1030.6125  0.0379 -4.9736
siesta:    2    -1030.7737    -1030.1944    -1030.1944  0.0772 -4.9268
siesta:    3    -1030.3826    -1030.4155    -1030.4155  0.0227 -4.9625
siesta:    4    -1030.3825    -1030.3468    -1030.3468  0.0018 -4.9596
siesta:    5    -1030.3824    -1030.3559    -1030.3559  0.0010 -4.9595

siesta: E_KS(eV) =            -1030.3732

siesta: Atomic forces (eV/Ang):
----------------------------------------
   Tot   -0.001590   -0.001593   -0.001570
----------------------------------------
   Max    0.599466
   Res    0.398046    sqrt( Sum f_i^2 / 3N )
----------------------------------------
   Max    0.599466    constrained

Stress-tensor-Voigt (kbar):       44.41       44.41       44.41        6.21        6.21        6.21
(Free)E + p*V (eV/cell)    -1035.3254
Target enthalpy (eV/cell)    -1030.3732

siesta: Stress tensor (static) (eV/Ang**3):
         0.027717    0.003876    0.003877
         0.003876    0.027717    0.003877
         0.003877    0.003877    0.027717

siesta: Pressure (static):        -44.40818317  kBar

siesta: Stress tensor (total) (eV/Ang**3):
         0.027717    0.003876    0.003877
         0.003876    0.027717    0.003877
         0.003877    0.003877    0.027717

siesta: Pressure (total):        -44.40818317  kBar

mulliken: Mulliken Atomic and Orbital Populations:

Species: Si                  
Atom  Qatom  Qorb
               3s      3s      3py     3pz     3px     3py     3pz     3px     
               3Pdxy   3Pdyz   3Pdz2   3Pdxz   3Pdx2-y2
   1  4.006   0.761   0.515   0.324   0.324   0.324   0.446   0.446   0.446
              0.103   0.103   0.057   0.103   0.057
   2  3.999   0.632   0.577   0.265   0.265   0.265   0.503   0.503   0.503
              0.116   0.116   0.069   0.116   0.069
   3  3.999   0.663   0.561   0.290   0.259   0.290   0.481   0.503   0.481
              0.110   0.114   0.069   0.114   0.062
   4  3.999   0.707   0.540   0.289   0.310   0.289   0.477   0.462   0.477
              0.110   0.107   0.060   0.107   0.064
   5  3.999   0.663   0.561   0.259   0.290   0.290   0.503   0.481   0.481
              0.114   0.114   0.064   0.110   0.067
   6  3.999   0.707   0.540   0.310   0.289   0.289   0.462   0.477   0.477
              0.107   0.107   0.063   0.110   0.061
   7  3.999   0.663   0.561   0.290   0.290   0.259   0.481   0.481   0.503
              0.114   0.110   0.064   0.114   0.067
   8  3.999   0.707   0.540   0.289   0.289   0.310   0.477   0.477   0.462
              0.107   0.110   0.063   0.107   0.061

mulliken: Qtot =       32.000

* Maximum dynamic memory allocated =    70 MB

siesta:                 ==============================
                            Begin CG move =      3
                        ==============================

outcoor: Atomic coordinates (Ang):                          
   -0.13784201   -0.13784193   -0.13784137   1       1  Si
    1.32568372    1.32568400    1.32568419   1       2  Si
    2.68461175    2.68461172   -0.12856841   1       3  Si
    4.14920172    4.14920168    1.38863366   1       4  Si
    2.68461159   -0.12856919    2.68461164   1       5  Si
    4.14920190    1.38863443    4.14920126   1       6  Si
   -0.12856903    2.68461151    2.68461182   1       7  Si
    1.38863436    4.14920167    4.14920107   1       8  Si
 Kpoints in:          108 . Kpoints trimmed:          108

siesta: k-grid: Number of k-points =   108
siesta: k-grid: Cutoff (effective) =    16.698 Ang
siesta: k-grid: Supercell and displacements
siesta: k-grid:    0   0   6      0.500
siesta: k-grid:    0   6   0      0.500
siesta: k-grid:    6   0   0      0.500
Naive supercell factors:     5    5    5

superc: Internal auxiliary supercell:     5 x     5 x     5  =     125
superc: Number of atoms, orbitals, and projectors:   1000  13000  16000

outcell: Unit cell vectors (Ang):
        5.565687    0.031632    0.031632
        0.031632    5.565687    0.031632
        0.031632    0.031632    5.565687

outcell: Cell vector modules (Ang)   :    5.565867    5.565867    5.565867
outcell: Cell angles (23,13,12) (deg):     89.3469     89.3469     89.3469
outcell: Cell volume (Ang**3)        :    172.3910
New_DM. Step:     4
DM reset as supercell changed.
Initializing Density Matrix...

InitMesh: MESH =    36 x    36 x    36 =       46656
InitMesh: Mesh cutoff (required, used) =   100.000   115.652 Ry

siesta: iscf   Eharris(eV)      E_KS(eV)   FreeEng(eV)   dDmax  Ef(eV)
siesta:    1    -1030.3778    -1039.5816    -1039.5816  1.7365 -5.0071
siesta:    2    -1030.1932    -1030.1479    -1030.1479  0.0707 -4.7391
siesta:    3    -1030.1870    -1030.4585    -1030.4585  0.0342 -4.7615
siesta:    4    -1030.1853    -1030.1889    -1030.1890  0.0033 -4.7755
siesta:    5    -1030.1853    -1030.1871    -1030.1871  0.0021 -4.7757
siesta:    6    -1030.1853    -1030.1831    -1030.1831  0.0002 -4.7760

siesta: E_KS(eV) =            -1030.1833

siesta: Atomic forces (eV/Ang):
----------------------------------------
   Tot    0.001709    0.001704    0.001690
----------------------------------------
   Max    1.363928
   Res    0.837924    sqrt( Sum f_i^2 / 3N )
----------------------------------------
   Max    1.363928    constrained

Stress-tensor-Voigt (kbar):       11.92       11.92       11.92       27.21       27.21       27.21
(Free)E + p*V (eV/cell)    -1031.4658
Target enthalpy (eV/cell)    -1030.1833

siesta: Stress tensor (static) (eV/Ang**3):
         0.007439    0.016984    0.016985
         0.016984    0.007439    0.016985
         0.016985    0.016985    0.007439

siesta: Pressure (static):        -11.91939701  kBar

siesta: Stress tensor (total) (eV/Ang**3):
         0.007439    0.016984    0.016985
         0.016984    0.007439    0.016985
         0.016985    0.016985    0.007439

siesta: Pressure (total):        -11.91939701  kBar

mulliken: Mulliken Atomic and Orbital Populations:

Species: Si                  
Atom  Qatom  Qorb
               3s      3s      3py     3pz     3px     3py     3pz     3px     
               3Pdxy   3Pdyz   3Pdz2   3Pdxz   3Pdx2-y2
   1  3.995   0.640   0.573   0.257   0.257   0.257   0.509   0.509   0.509
              0.116   0.116   0.069   0.116   0.069
   2  3.991   0.694   0.547   0.275   0.275   0.275   0.489   0.489   0.489
              0.111   0.111   0.064   0.111   0.064
   3  4.001   0.653   0.567   0.264   0.269   0.264   0.503   0.499   0.503
              0.115   0.115   0.067   0.115   0.069
   4  4.003   0.637   0.574   0.263   0.245   0.263   0.506   0.518   0.506
              0.115   0.118   0.071   0.118   0.068
   5  4.001   0.653   0.567   0.269   0.264   0.264   0.499   0.503   0.503
              0.115   0.115   0.068   0.115   0.067
   6  4.003   0.637   0.574   0.245   0.263   0.263   0.518   0.506   0.506
              0.118   0.118   0.069   0.115   0.071
   7  4.001   0.653   0.567   0.264   0.264   0.269   0.503   0.503   0.499
              0.115   0.115   0.068   0.115   0.067
   8  4.003   0.637   0.574   0.263   0.263   0.245   0.506   0.506   0.518
              0.118   0.115   0.069   0.118   0.071

mulliken: Qtot =       32.000

* Maximum dynamic memory allocated =    75 MB

siesta:                 ==============================
                            Begin CG move =      4
                        ==============================

outcoor: Atomic coordinates (Ang):                          
   -0.09394541   -0.09394536   -0.09394497   1       1  Si
    1.33665859    1.33665879    1.33665891   1       2  Si
    2.69623372    2.69623369   -0.08814318   1       3  Si
    4.12749665    4.12749662    1.37917641   1       4  Si
    2.69623361   -0.08814371    2.69623364   1       5  Si
    4.12749677    1.37917693    4.12749634   1       6  Si
   -0.08814360    2.69623355    2.69623377   1       7  Si
    1.37917689    4.12749661    4.12749621   1       8  Si
 Kpoints in:          108 . Kpoints trimmed:          108

siesta: k-grid: Number of k-points =   108
siesta: k-grid: Cutoff (effective) =    16.827 Ang
siesta: k-grid: Supercell and displacements
siesta: k-grid:    0   0   6      0.500
siesta: k-grid:    0   6   0      0.500
siesta: k-grid:    6   0   0      0.500
Naive supercell factors:     5    5    5

superc: Internal auxiliary supercell:     5 x     5 x     5  =     125
superc: Number of atoms, orbitals, and projectors:   1000  13000  16000

outcell: Unit cell vectors (Ang):
        5.608830    0.021472    0.021472
        0.021472    5.608830    0.021472
        0.021472    0.021472    5.608830

outcell: Cell vector modules (Ang)   :    5.608912    5.608912    5.608912
outcell: Cell angles (23,13,12) (deg):     89.5605     89.5605     89.5605
outcell: Cell volume (Ang**3)        :    176.4403
New_DM. Step:     5
Re-using DM from previous geometry...
Re-using DM without extrapolation (not allowed)
Density Matrix sparsity pattern changed.

InitMesh: MESH =    36 x    36 x    36 =       46656
InitMesh: Mesh cutoff (required, used) =   100.000   113.868 Ry

siesta: iscf   Eharris(eV)      E_KS(eV)   FreeEng(eV)   dDmax  Ef(eV)
siesta:    1    -1030.5450    -1029.7259    -1029.7260  0.0258 -4.8378
siesta:    2    -1030.8347    -1030.2733    -1030.2733  0.0780 -4.9284
siesta:    3    -1030.4553    -1030.1335    -1030.1335  0.0186 -4.8610
siesta:    4    -1030.4551    -1030.4154    -1030.4154  0.0014 -4.8648
siesta:    5    -1030.4551    -1030.4316    -1030.4316  0.0007 -4.8642

siesta: E_KS(eV) =            -1030.4453

siesta: Atomic forces (eV/Ang):
----------------------------------------
   Tot   -0.000887   -0.000887   -0.000894
----------------------------------------
   Max    0.794902
   Res    0.430097    sqrt( Sum f_i^2 / 3N )
----------------------------------------
   Max    0.794902    constrained

Stress-tensor-Voigt (kbar):       35.33       35.33       35.33       13.05       13.05       13.05
(Free)E + p*V (eV/cell)    -1034.3362
Target enthalpy (eV/cell)    -1030.4453

siesta: Stress tensor (static) (eV/Ang**3):
         0.022052    0.008147    0.008147
         0.008147    0.022052    0.008147
         0.008147    0.008147    0.022052

siesta: Pressure (static):        -35.33209561  kBar

siesta: Stress tensor (total) (eV/Ang**3):
         0.022052    0.008147    0.008147
         0.008147    0.022052    0.008147
         0.008147    0.008147    0.022052

siesta: Pressure (total):        -35.33209561  kBar

mulliken: Mulliken Atomic and Orbital Populations:

Species: Si                  
Atom  Qatom  Qorb
               3s      3s      3py     3pz     3px     3py     3pz     3px     
               3Pdxy   3Pdyz   3Pdz2   3Pdxz   3Pdx2-y2
   1  3.999   0.724   0.531   0.295   0.295   0.295   0.472   0.472   0.472
              0.107   0.107   0.061   0.107   0.061
   2  3.998   0.654   0.565   0.272   0.272   0.272   0.496   0.496   0.496
              0.114   0.114   0.067   0.114   0.067
   3  4.002   0.661   0.562   0.281   0.262   0.281   0.489   0.503   0.489
              0.112   0.114   0.068   0.114   0.064
   4  3.999   0.681   0.552   0.282   0.290   0.282   0.486   0.479   0.486
              0.112   0.111   0.063   0.111   0.065
   5  4.002   0.661   0.562   0.262   0.281   0.281   0.503   0.489   0.489
              0.114   0.114   0.065   0.112   0.067
   6  3.999   0.681   0.552   0.290   0.282   0.282   0.479   0.486   0.486
              0.111   0.111   0.065   0.112   0.064
   7  4.002   0.661   0.562   0.281   0.281   0.262   0.489   0.489   0.503
              0.114   0.112   0.065   0.114   0.067
   8  3.999   0.681   0.552   0.282   0.282   0.290   0.486   0.486   0.479
              0.111   0.112   0.065   0.111   0.064

mulliken: Qtot =       32.000

cgvc: Finished line minimization    1.  Mean atomic displacement =    0.1911

* Maximum dynamic memory allocated =    80 MB

siesta:                 ==============================
                            Begin CG move =      5
                        ==============================

outcoor: Atomic coordinates (Ang):                          
   -0.11143649   -0.11143617   -0.11143691   1       1  Si
    1.24611637    1.24611660    1.24611708   1       2  Si
    2.67631724    2.67631722   -0.10621933   1       3  Si
    4.03156635    4.03156601    1.23470957   1       4  Si
    2.67631729   -0.10621867    2.67631631   1       5  Si
    4.03156611    1.23470970    4.03156605   1       6  Si
   -0.10621871    2.67631794    2.67631660   1       7  Si
    1.23470987    4.03156583    4.03156584   1       8  Si
 Kpoints in:          108 . Kpoints trimmed:          108

siesta: k-grid: Number of k-points =   108
siesta: k-grid: Cutoff (effective) =    16.465 Ang
siesta: k-grid: Supercell and displacements
siesta: k-grid:    0   0   6      0.500
siesta: k-grid:    6   0   0      0.500
siesta: k-grid:    0   6   0      0.500
Naive supercell factors:     5    5    5

superc: Internal auxiliary supercell:     5 x     5 x     5  =     125
superc: Number of atoms, orbitals, and projectors:   1000  13000  16000

outcell: Unit cell vectors (Ang):
        5.488177   -0.005865   -0.005866
       -0.005865    5.488177   -0.005866
       -0.005866   -0.005866    5.488177

outcell: Cell vector modules (Ang)   :    5.488184    5.488184    5.488184
outcell: Cell angles (23,13,12) (deg):     90.1224     90.1224     90.1224
outcell: Cell volume (Ang**3)        :    165.3038
New_DM. Step:     6
Re-using DM from previous geometry...
Re-using DM without extrapolation (not allowed)
Density Matrix sparsity pattern changed.

InitMesh: MESH =    36 x    36 x    36 =       46656
InitMesh: Mesh cutoff (required, used) =   100.000   118.920 Ry

siesta: iscf   Eharris(eV)      E_KS(eV)   FreeEng(eV)   dDmax  Ef(eV)
siesta:    1    -1030.7018    -1032.1149    -1032.1149  0.0492 -5.0592
siesta:    2    -1031.2242    -1030.1918    -1030.1918  0.1185 -5.0651
siesta:    3    -1030.5312    -1030.8586    -1030.8586  0.0258 -5.0568
siesta:    4    -1030.5307    -1030.4500    -1030.4500  0.0028 -5.0490
siesta:    5    -1030.5306    -1030.4637    -1030.4637  0.0019 -5.0493
siesta:    6    -1030.5306    -1030.5149    -1030.5149  0.0005 -5.0504

siesta: E_KS(eV) =            -1030.5233

siesta: Atomic forces (eV/Ang):
----------------------------------------
   Tot   -0.004723   -0.004723   -0.004738
----------------------------------------
   Max    0.781984
   Res    0.467187    sqrt( Sum f_i^2 / 3N )
----------------------------------------
   Max    0.781984    constrained

Stress-tensor-Voigt (kbar):      -16.72      -16.72      -16.72       -8.39       -8.39       -8.39
(Free)E + p*V (eV/cell)    -1028.7987
Target enthalpy (eV/cell)    -1030.5233

siesta: Stress tensor (static) (eV/Ang**3):
        -0.010433   -0.005237   -0.005238
        -0.005237   -0.010433   -0.005238
        -0.005238   -0.005238   -0.010433

siesta: Pressure (static):         16.71576025  kBar

siesta: Stress tensor (total) (eV/Ang**3):
        -0.010433   -0.005237   -0.005238
        -0.005237   -0.010433   -0.005238
        -0.005238   -0.005238   -0.010433

siesta: Pressure (total):         16.71576025  kBar

mulliken: Mulliken Atomic and Orbital Populations:

Species: Si                  
Atom  Qatom  Qorb
               3s      3s      3py     3pz     3px     3py     3pz     3px     
               3Pdxy   3Pdyz   3Pdz2   3Pdxz   3Pdx2-y2
   1  4.010   0.573   0.605   0.211   0.211   0.211   0.553   0.553   0.553
              0.127   0.127   0.078   0.127   0.078
   2  3.997   0.674   0.555   0.251   0.251   0.251   0.511   0.511   0.511
              0.116   0.116   0.067   0.116   0.067
   3  3.998   0.644   0.569   0.231   0.260   0.231   0.528   0.509   0.528
              0.121   0.118   0.068   0.118   0.073
   4  4.000   0.612   0.585   0.231   0.208   0.231   0.534   0.549   0.534
              0.121   0.124   0.076   0.124   0.071
   5  3.998   0.644   0.569   0.260   0.231   0.231   0.509   0.528   0.528
              0.118   0.118   0.071   0.121   0.069
   6  4.000   0.612   0.585   0.208   0.231   0.231   0.549   0.534   0.534
              0.124   0.124   0.073   0.121   0.075
   7  3.998   0.644   0.569   0.231   0.231   0.260   0.528   0.528   0.509
              0.118   0.121   0.071   0.118   0.069
   8  4.000   0.612   0.585   0.231   0.231   0.208   0.534   0.534   0.549
              0.124   0.121   0.073   0.124   0.075

mulliken: Qtot =       32.000

* Maximum dynamic memory allocated =    80 MB

siesta:                 ==============================
                            Begin CG move =      6
                        ==============================

outcoor: Atomic coordinates (Ang):                          
   -0.10332073   -0.10332054   -0.10332075   1       1  Si
    1.28857876    1.28857897    1.28857929   1       2  Si
    2.68609053    2.68609051   -0.09750618   1       3  Si
    4.07700424    4.07700405    1.30272019   1       4  Si
    2.68609051   -0.09750608    2.68609001   1       5  Si
    4.07700418    1.30272050    4.07700394   1       6  Si
   -0.09750604    2.68609082    2.68609021   1       7  Si
    1.30272057    4.07700396    4.07700377   1       8  Si
 Kpoints in:          108 . Kpoints trimmed:          108

siesta: k-grid: Number of k-points =   108
siesta: k-grid: Cutoff (effective) =    16.636 Ang
siesta: k-grid: Supercell and displacements
siesta: k-grid:    0   0   6      0.500
siesta: k-grid:    0   6   0      0.500
siesta: k-grid:    6   0   0      0.500
Naive supercell factors:     5    5    5

superc: Internal auxiliary supercell:     5 x     5 x     5  =     125
superc: Number of atoms, orbitals, and projectors:   1000  13000  16000

outcell: Unit cell vectors (Ang):
        5.545283    0.007074    0.007073
        0.007074    5.545283    0.007073
        0.007073    0.007073    5.545283

outcell: Cell vector modules (Ang)   :    5.545292    5.545292    5.545292
outcell: Cell angles (23,13,12) (deg):     89.8537     89.8537     89.8537
outcell: Cell volume (Ang**3)        :    170.5175
New_DM. Step:     7
Re-using DM from previous geometry...
Re-using DM without extrapolation (not allowed)
Density Matrix sparsity pattern changed.

InitMesh: MESH =    36 x    36 x    36 =       46656
InitMesh: Mesh cutoff (required, used) =   100.000   116.483 Ry

siesta: iscf   Eharris(eV)      E_KS(eV)   FreeEng(eV)   dDmax  Ef(eV)
siesta:    1    -1030.6977    -1029.7462    -1029.7462  0.0256 -4.9767
siesta:    2    -1030.8273    -1030.5731    -1030.5731  0.0493 -4.9732
siesta:    3    -1030.6566    -1030.3829    -1030.3829  0.0136 -4.9746
siesta:    4    -1030.6564    -1030.6331    -1030.6331  0.0010 -4.9773

siesta: E_KS(eV) =            -1030.6400

siesta: Atomic forces (eV/Ang):
----------------------------------------
   Tot    0.016157    0.016149    0.016157
----------------------------------------
   Max    0.208212
   Res    0.113665    sqrt( Sum f_i^2 / 3N )
----------------------------------------
   Max    0.208212    constrained

Stress-tensor-Voigt (kbar):       10.59       10.59       10.59        3.93        3.93        3.93
(Free)E + p*V (eV/cell)    -1031.7675
Target enthalpy (eV/cell)    -1030.6400

siesta: Stress tensor (static) (eV/Ang**3):
         0.006612    0.002450    0.002450
         0.002450    0.006612    0.002450
         0.002450    0.002450    0.006612

siesta: Pressure (static):        -10.59386006  kBar

siesta: Stress tensor (total) (eV/Ang**3):
         0.006612    0.002450    0.002450
         0.002450    0.006612    0.002450
         0.002450    0.002450    0.006612

siesta: Pressure (total):        -10.59386006  kBar

mulliken: Mulliken Atomic and Orbital Populations:

Species: Si                  
Atom  Qatom  Qorb
               3s      3s      3py     3pz     3px     3py     3pz     3px     
               3Pdxy   3Pdyz   3Pdz2   3Pdxz   3Pdx2-y2
   1  4.000   0.641   0.571   0.252   0.252   0.252   0.514   0.514   0.514
              0.118   0.118   0.069   0.118   0.069
   2  3.999   0.669   0.557   0.261   0.261   0.261   0.504   0.504   0.504
              0.115   0.115   0.067   0.115   0.067
   3  4.000   0.654   0.564   0.256   0.262   0.256   0.509   0.505   0.509
              0.117   0.116   0.067   0.116   0.068
   4  4.000   0.647   0.568   0.254   0.246   0.254   0.512   0.517   0.512
              0.117   0.117   0.070   0.117   0.068
   5  4.000   0.654   0.564   0.262   0.256   0.256   0.505   0.509   0.509
              0.116   0.116   0.068   0.117   0.068
   6  4.000   0.647   0.568   0.246   0.254   0.254   0.517   0.512   0.512
              0.117   0.117   0.068   0.117   0.069
   7  4.000   0.654   0.564   0.256   0.256   0.262   0.509   0.509   0.505
              0.116   0.117   0.068   0.116   0.068
   8  4.000   0.647   0.568   0.254   0.254   0.246   0.512   0.512   0.517
              0.117   0.117   0.068   0.117   0.069

mulliken: Qtot =       32.000

cgvc: Finished line minimization    2.  Mean atomic displacement =    0.1007

* Maximum dynamic memory allocated =    82 MB

siesta:                 ==============================
                            Begin CG move =      7
                        ==============================

outcoor: Atomic coordinates (Ang):                          
   -0.07082762   -0.07082865   -0.07082742   1       1  Si
    1.28626504    1.28626470    1.28626344   1       2  Si
    2.63929841    2.63929827   -0.07118625   1       3  Si
    3.99703275    3.99703323    1.26757647   1       4  Si
    2.63930106   -0.07118787    2.63930155   1       5  Si
    3.99703381    1.26757598    3.99703422   1       6  Si
   -0.07118774    2.63929939    2.63930067   1       7  Si
    1.26757624    3.99703481    3.99703435   1       8  Si
 Kpoints in:          108 . Kpoints trimmed:          108

siesta: k-grid: Number of k-points =   108
siesta: k-grid: Cutoff (effective) =    16.500 Ang
siesta: k-grid: Supercell and displacements
siesta: k-grid:    6   0   0      0.500
siesta: k-grid:    0   6   0      0.500
siesta: k-grid:    0   0   6      0.500
Naive supercell factors:     5    5    5

superc: Internal auxiliary supercell:     5 x     5 x     5  =     125
superc: Number of atoms, orbitals, and projectors:   1000  13000  16000

outcell: Unit cell vectors (Ang):
        5.500118   -0.011493   -0.011492
       -0.011493    5.500118   -0.011492
       -0.011492   -0.011492    5.500119

outcell: Cell vector modules (Ang)   :    5.500142    5.500142    5.500143
outcell: Cell angles (23,13,12) (deg):     90.2392     90.2392     90.2392
outcell: Cell volume (Ang**3)        :    166.3836
New_DM. Step:     8
Re-using DM from previous geometry...
Re-using DM without extrapolation (not allowed)
Density Matrix sparsity pattern changed.

InitMesh: MESH =    36 x    36 x    36 =       46656
InitMesh: Mesh cutoff (required, used) =   100.000   118.406 Ry

siesta: iscf   Eharris(eV)      E_KS(eV)   FreeEng(eV)   dDmax  Ef(eV)
siesta:    1    -1030.6481    -1031.2174    -1031.2174  0.0333 -5.0225
siesta:    2    -1030.8904    -1030.4158    -1030.4158  0.0780 -5.0363
siesta:    3    -1030.5714    -1030.7230    -1030.7230  0.0163 -5.0261
siesta:    4    -1030.5712    -1030.5343    -1030.5343  0.0012 -5.0219
siesta:    5    -1030.5712    -1030.5428    -1030.5428  0.0007 -5.0228

siesta: E_KS(eV) =            -1030.5632

siesta: Atomic forces (eV/Ang):
----------------------------------------
   Tot   -0.005313   -0.005316   -0.005423
----------------------------------------
   Max    0.722824
   Res    0.410757    sqrt( Sum f_i^2 / 3N )
----------------------------------------
   Max    0.722824    constrained

Stress-tensor-Voigt (kbar):      -10.78      -10.78      -10.78      -10.55      -10.54      -10.54
(Free)E + p*V (eV/cell)    -1029.4440
Target enthalpy (eV/cell)    -1030.5632

siesta: Stress tensor (static) (eV/Ang**3):
        -0.006726   -0.006582   -0.006580
        -0.006582   -0.006726   -0.006581
        -0.006580   -0.006581   -0.006727

siesta: Pressure (static):         10.77721179  kBar

siesta: Stress tensor (total) (eV/Ang**3):
        -0.006726   -0.006582   -0.006580
        -0.006582   -0.006726   -0.006581
        -0.006580   -0.006581   -0.006727

siesta: Pressure (total):         10.77721179  kBar

mulliken: Mulliken Atomic and Orbital Populations:

Species: Si                  
Atom  Qatom  Qorb
               3s      3s      3py     3pz     3px     3py     3pz     3px     
               3Pdxy   3Pdyz   3Pdz2   3Pdxz   3Pdx2-y2
   1  3.998   0.668   0.557   0.252   0.252   0.252   0.511   0.511   0.511
              0.116   0.116   0.068   0.116   0.068
   2  4.008   0.589   0.596   0.218   0.218   0.218   0.547   0.547   0.547
              0.125   0.125   0.076   0.125   0.076
   3  4.001   0.618   0.582   0.238   0.221   0.238   0.528   0.538   0.528
              0.120   0.122   0.074   0.122   0.071
   4  3.997   0.646   0.568   0.234   0.257   0.234   0.526   0.511   0.526
              0.120   0.117   0.068   0.117   0.072
   5  4.001   0.618   0.582   0.221   0.238   0.238   0.538   0.528   0.528
              0.122   0.122   0.072   0.120   0.073
   6  3.997   0.646   0.568   0.257   0.234   0.234   0.511   0.526   0.526
              0.117   0.117   0.071   0.120   0.069
   7  4.001   0.618   0.582   0.238   0.238   0.221   0.528   0.528   0.538
              0.122   0.120   0.072   0.122   0.073
   8  3.997   0.646   0.568   0.234   0.234   0.257   0.526   0.526   0.511
              0.117   0.120   0.071   0.117   0.069

mulliken: Qtot =       32.000

* Maximum dynamic memory allocated =    82 MB

siesta:                 ==============================
                            Begin CG move =      8
                        ==============================

outcoor: Atomic coordinates (Ang):                          
   -0.09457343   -0.09457357   -0.09457339   1       1  Si
    1.28801159    1.28801165    1.28801154   1       2  Si
    2.67361660    2.67361655   -0.09044623   1       3  Si
    4.05563548    4.05563546    1.29332355   1       4  Si
    2.67361730   -0.09044658    2.67361706   1       5  Si
    4.05563572    1.29332365    4.05563565   1       6  Si
   -0.09044652    2.67361709    2.67361698   1       7  Si
    1.29332377    4.05563582    4.05563556   1       8  Si
 Kpoints in:          108 . Kpoints trimmed:          108

siesta: k-grid: Number of k-points =   108
siesta: k-grid: Cutoff (effective) =    16.600 Ang
siesta: k-grid: Supercell and displacements
siesta: k-grid:    6   0   0      0.500
siesta: k-grid:    0   6   0      0.500
siesta: k-grid:    0   0   6      0.500
Naive supercell factors:     5    5    5

superc: Internal auxiliary supercell:     5 x     5 x     5  =     125
superc: Number of atoms, orbitals, and projectors:   1000  13000  16000

outcell: Unit cell vectors (Ang):
        5.533251    0.002127    0.002127
        0.002127    5.533251    0.002127
        0.002127    0.002127    5.533251

outcell: Cell vector modules (Ang)   :    5.533251    5.533251    5.533252
outcell: Cell angles (23,13,12) (deg):     89.9559     89.9559     89.9559
outcell: Cell volume (Ang**3)        :    169.4107
New_DM. Step:     9
Re-using DM from previous geometry...
Re-using DM without extrapolation (not allowed)
Density Matrix sparsity pattern changed.

InitMesh: MESH =    36 x    36 x    36 =       46656
InitMesh: Mesh cutoff (required, used) =   100.000   116.989 Ry

siesta: iscf   Eharris(eV)      E_KS(eV)   FreeEng(eV)   dDmax  Ef(eV)
siesta:    1    -1030.7147    -1030.1270    -1030.1270  0.0193 -4.9719
siesta:    2    -1030.8500    -1030.5858    -1030.5858  0.0503 -4.9945
siesta:    3    -1030.6724    -1030.4511    -1030.4511  0.0142 -4.9700
siesta:    4    -1030.6723    -1030.6554    -1030.6554  0.0007 -4.9718

siesta: E_KS(eV) =            -1030.6605

siesta: Atomic forces (eV/Ang):
----------------------------------------
   Tot    0.008590    0.008591    0.008596
----------------------------------------
   Max    0.037905
   Res    0.025166    sqrt( Sum f_i^2 / 3N )
----------------------------------------
   Max    0.037905    constrained

Stress-tensor-Voigt (kbar):        5.90        5.90        5.90        0.62        0.62        0.62
(Free)E + p*V (eV/cell)    -1031.2843
Target enthalpy (eV/cell)    -1030.6605

siesta: Stress tensor (static) (eV/Ang**3):
         0.003682    0.000387    0.000387
         0.000387    0.003682    0.000387
         0.000387    0.000387    0.003682

siesta: Pressure (static):         -5.89952738  kBar

siesta: Stress tensor (total) (eV/Ang**3):
         0.003682    0.000387    0.000387
         0.000387    0.003682    0.000387
         0.000387    0.000387    0.003682

siesta: Pressure (total):         -5.89952738  kBar

mulliken: Mulliken Atomic and Orbital Populations:

Species: Si                  
Atom  Qatom  Qorb
               3s      3s      3py     3pz     3px     3py     3pz     3px     
               3Pdxy   3Pdyz   3Pdz2   3Pdxz   3Pdx2-y2
   1  4.000   0.649   0.567   0.252   0.252   0.252   0.513   0.513   0.513
              0.117   0.117   0.069   0.117   0.069
   2  4.000   0.647   0.568   0.249   0.249   0.249   0.515   0.515   0.515
              0.118   0.118   0.069   0.118   0.069
   3  4.000   0.646   0.568   0.251   0.250   0.251   0.514   0.515   0.514
              0.117   0.118   0.069   0.118   0.069
   4  4.000   0.648   0.568   0.250   0.250   0.250   0.515   0.515   0.515
              0.117   0.117   0.069   0.117   0.069
   5  4.000   0.646   0.568   0.250   0.251   0.251   0.515   0.514   0.514
              0.118   0.118   0.069   0.117   0.069
   6  4.000   0.648   0.568   0.250   0.250   0.250   0.515   0.515   0.515
              0.117   0.117   0.069   0.117   0.069
   7  4.000   0.646   0.568   0.251   0.251   0.250   0.514   0.514   0.515
              0.118   0.117   0.069   0.118   0.069
   8  4.000   0.648   0.568   0.250   0.250   0.250   0.515   0.515   0.515
              0.117   0.117   0.069   0.117   0.069

mulliken: Qtot =       32.000

* Maximum dynamic memory allocated =    82 MB

outcoor: Relaxed atomic coordinates (Ang):                  
   -0.09457343   -0.09457357   -0.09457339   1       1  Si
    1.28801159    1.28801165    1.28801154   1       2  Si
    2.67361660    2.67361655   -0.09044623   1       3  Si
    4.05563548    4.05563546    1.29332355   1       4  Si
    2.67361730   -0.09044658    2.67361706   1       5  Si
    4.05563572    1.29332365    4.05563565   1       6  Si
   -0.09044652    2.67361709    2.67361698   1       7  Si
    1.29332377    4.05563582    4.05563556   1       8  Si

outcell: Unit cell vectors (Ang):
        5.533251    0.002127    0.002127
        0.002127    5.533251    0.002127
        0.002127    0.002127    5.533251

outcell: Cell vector modules (Ang)   :    5.533251    5.533251    5.533252
outcell: Cell angles (23,13,12) (deg):     89.9559     89.9559     89.9559
outcell: Cell volume (Ang**3)        :    169.4107

coxmol: Writing XMOL coordinates into file si.xyz                                                          
Writing WFSX for selected k-points in si.selected.WFSX

writewave: Wave Functions Coefficients

     Number of k-points =        1
        Number of Spins =        1
   Number of basis orbs =      104


                                                                  ******
            k-point =        1    0.000000  0.000000  0.000000
     Spin component =        1
 Num. wavefunctions =       50
Use readwfsx utility to print wavefunction coefficients from WFSX file
Computing bands...

siesta: Band k vectors (Bohr**-1):
  ik           k
   1    0.291659    0.291659    0.291659
   2    0.279993    0.279993    0.279993
   3    0.268327    0.268327    0.268327
   4    0.256660    0.256660    0.256660
   5    0.244994    0.244994    0.244994
   6    0.233328    0.233328    0.233328
   7    0.221661    0.221661    0.221661
   8    0.209995    0.209995    0.209995
   9    0.198328    0.198328    0.198328
  10    0.186662    0.186662    0.186662
  11    0.174996    0.174996    0.174996
  12    0.163329    0.163329    0.163329
  13    0.151663    0.151663    0.151663
  14    0.139997    0.139997    0.139997
  15    0.128330    0.128330    0.128330
  16    0.116664    0.116664    0.116664
  17    0.104997    0.104997    0.104997
  18    0.093331    0.093331    0.093331
  19    0.081665    0.081665    0.081665
  20    0.069998    0.069998    0.069998
  21    0.058332    0.058332    0.058332
  22    0.046666    0.046666    0.046666
  23    0.034999    0.034999    0.034999
  24    0.023333    0.023333    0.023333
  25    0.011666    0.011666    0.011666
  26    0.000000    0.000000    0.000000
  27    0.019444    0.000000    0.000000
  28    0.038888    0.000000    0.000000
  29    0.058332    0.000000    0.000000
  30    0.077776    0.000000    0.000000
  31    0.097220    0.000000    0.000000
  32    0.116664    0.000000    0.000000
  33    0.136108    0.000000    0.000000
  34    0.155552    0.000000    0.000000
  35    0.174996    0.000000    0.000000
  36    0.194440    0.000000    0.000000
  37    0.213884    0.000000    0.000000
  38    0.233328    0.000000    0.000000
  39    0.252771    0.000000    0.000000
  40    0.272215    0.000000    0.000000
  41    0.291659    0.000000    0.000000
  42    0.311103    0.000000    0.000000
  43    0.330547    0.000000    0.000000
  44    0.349991    0.000000    0.000000
  45    0.369435    0.000000    0.000000
  46    0.388879    0.000000    0.000000
  47    0.408323    0.000000    0.000000
  48    0.427767    0.000000    0.000000
  49    0.447211    0.000000    0.000000
  50    0.466655    0.000000    0.000000
  51    0.486099    0.000000    0.000000
  52    0.505543    0.000000    0.000000
  53    0.524987    0.000000    0.000000
  54    0.544431    0.000000    0.000000
  55    0.563875    0.000000    0.000000
  56    0.583319    0.000000    0.000000
  57    0.583319    0.014583    0.014583
  58    0.583319    0.029166    0.029166
  59    0.583319    0.043749    0.043749
  60    0.583319    0.058332    0.058332
  61    0.583319    0.072915    0.072915
  62    0.583319    0.087498    0.087498
  63    0.583319    0.102081    0.102081
  64    0.583319    0.116664    0.116664
  65    0.583319    0.131247    0.131247
  66    0.583319    0.145830    0.145830
  67    0.566653    0.141663    0.141663
  68    0.549986    0.137497    0.137497
  69    0.533320    0.133330    0.133330
  70    0.516654    0.129163    0.129163
  71    0.499988    0.124997    0.124997
  72    0.483321    0.120830    0.120830
  73    0.466655    0.116664    0.116664
  74    0.449989    0.112497    0.112497
  75    0.433323    0.108331    0.108331
  76    0.416656    0.104164    0.104164
  77    0.399990    0.099998    0.099998
  78    0.383324    0.095831    0.095831
  79    0.366658    0.091664    0.091664
  80    0.349991    0.087498    0.087498
  81    0.333325    0.083331    0.083331
  82    0.316659    0.079165    0.079165
  83    0.299993    0.074998    0.074998
  84    0.283326    0.070832    0.070832
  85    0.266660    0.066665    0.066665
  86    0.249994    0.062498    0.062498
  87    0.233328    0.058332    0.058332
  88    0.216661    0.054165    0.054165
  89    0.199995    0.049999    0.049999
  90    0.183329    0.045832    0.045832
  91    0.166663    0.041666    0.041666
  92    0.149996    0.037499    0.037499
  93    0.133330    0.033333    0.033333
  94    0.116664    0.029166    0.029166
  95    0.099998    0.024999    0.024999
  96    0.083331    0.020833    0.020833
  97    0.066665    0.016666    0.016666
  98    0.049999    0.012500    0.012500
  99    0.033333    0.008333    0.008333
 100    0.016666    0.004167    0.004167
 101    0.000000    0.000000    0.000000

siesta: Band energies (eV):
  ik is    eps
   1  1 -14.83 -14.82 -14.82 -14.81 -12.16 -12.15 -12.15 -12.15  -6.61  -6.61
         -6.61  -6.58  -6.58  -6.58  -6.56  -6.56  -4.00  -4.00  -4.00  -4.00
         -1.93  -1.93  -1.93  -1.93  -1.93  -1.93  -1.92  -1.92   3.48   3.49
          3.49   3.52   5.36   5.36   5.36   5.41   5.41   5.58   5.59   5.59
          5.84   5.95   5.95   5.95   6.05   6.05   6.06   6.17   6.17   6.18
          6.19   6.19   8.27   8.27   8.27   8.29  16.31  16.35  16.35  16.35
         17.26  17.26  17.27  17.27  17.28  17.32  17.32  17.32  19.26  19.26
         19.27  19.30  19.30  19.30  19.32  19.32  19.75  19.75  19.75  19.85
         28.61  28.61  28.61  28.63  28.63  28.64  28.67  28.67  65.54  65.92
         65.92  65.98  72.95  72.95  73.02  74.90  75.10  75.10  76.49  76.49
        114.65 115.14 115.14 115.27
   2  1 -14.88 -14.81 -14.81 -14.81 -12.14 -12.14 -12.14 -12.08  -6.70  -6.70
         -6.70  -6.60  -6.60  -6.60  -6.56  -6.56  -3.99  -3.90  -3.90  -3.90
         -1.95  -1.95  -1.95  -1.91  -1.91  -1.88  -1.88  -1.88   3.43   3.44
          3.44   3.50   4.93   4.93   4.93   5.05   5.05   5.56   5.56   5.56
          5.72   5.99   6.00   6.00   6.09   6.09   6.10   6.56   6.56   6.68
          6.69   6.69   8.30   8.30   8.30   8.39  16.20  16.32  16.32  16.32
         17.09  17.09  17.16  17.16  17.16  17.28  17.28  17.28  19.20  19.20
         19.21  19.24  19.24  19.24  19.36  19.36  19.36  19.43  19.43  20.03
         28.48  28.48  28.48  28.70  28.70  28.71  28.72  28.72  63.74  64.14
         64.14  64.19  67.45  67.45  67.51  71.71  71.88  71.88  76.33  76.33
        110.72 114.00 114.00 114.12
   3  1 -14.96 -14.81 -14.81 -14.80 -12.12 -12.12 -12.12 -11.96  -6.85  -6.85
         -6.85  -6.64  -6.64  -6.64  -6.55  -6.55  -3.98  -3.75  -3.75  -3.75
         -1.98  -1.98  -1.98  -1.90  -1.90  -1.80  -1.80  -1.80   3.31   3.32
          3.32   3.47   4.58   4.58   4.58   4.68   4.68   5.52   5.52   5.52
          5.54   6.06   6.06   6.06   6.17   6.17   6.17   6.99   6.99   7.21
          7.21   7.21   8.37   8.37   8.37   8.53  16.04  16.23  16.23  16.23
         16.83  16.83  16.96  16.96  16.97  17.23  17.23  17.24  18.69  18.69
         18.69  19.10  19.10  19.10  19.31  19.31  19.31  19.58  19.58  20.32
         28.24  28.24  28.24  28.80  28.80  28.87  28.87  28.87  57.27  57.27
         57.29  60.65  67.00  67.00  67.06  67.31  67.44  67.44  76.06  76.06
        105.28 107.29 107.29 107.37
   4  1 -15.06 -14.79 -14.79 -14.79 -12.09 -12.09 -12.09 -11.80  -7.04  -7.04
         -7.04  -6.70  -6.70  -6.70  -6.53  -6.53  -3.96  -3.58  -3.58  -3.58
         -2.00  -2.00  -2.00  -1.89  -1.89  -1.69  -1.69  -1.69   3.07   3.08
          3.08   3.42   4.32   4.32   4.35   4.35   4.35   5.34   5.47   5.48
          5.48   6.15   6.15   6.15   6.25   6.25   6.26   7.44   7.44   7.71
          7.72   7.72   8.50   8.50   8.50   8.68  15.86  16.03  16.03  16.03
         16.51  16.51  16.70  16.70  16.71  17.20  17.20  17.20  18.15  18.15
         18.15  18.95  18.95  18.95  19.31  19.31  19.31  19.76  19.76  20.69
         27.90  27.90  27.90  28.92  28.92  29.15  29.15  29.15  51.00  51.00
         51.02  56.63  63.00  63.09  63.09  67.20  67.20  67.25  75.64  75.64
         98.23  98.23  98.27  99.87
   5  1 -15.18 -14.77 -14.77 -14.77 -12.05 -12.05 -12.05 -11.60  -7.25  -7.25
         -7.25  -6.77  -6.77  -6.77  -6.51  -6.51  -3.93  -3.41  -3.41  -3.41
         -2.00  -2.00  -1.99  -1.87  -1.87  -1.54  -1.54  -1.54   2.73   2.73
          2.73   3.34   3.97   3.97   4.25   4.25   4.25   5.14   5.43   5.43
          5.43   6.26   6.26   6.26   6.35   6.35   6.36   7.89   7.89   8.11
          8.12   8.12   8.77   8.77   8.78   8.80  15.71  15.72  15.72  15.72
         16.15  16.15  16.38  16.38  16.39  17.16  17.16  17.16  17.80  17.80
         17.80  18.76  18.76  18.76  19.34  19.34  19.34  19.93  19.93  21.10
         27.46  27.46  27.46  29.05  29.05  29.55  29.55  29.55  45.81  45.81
         45.83  52.27  59.48  59.54  59.54  67.29  67.29  67.33  75.08  75.08
         90.54  90.54  90.56  95.14
   6  1 -15.31 -14.75 -14.75 -14.75 -12.00 -12.00 -12.00 -11.38  -7.48  -7.48
         -7.48  -6.85  -6.85  -6.85  -6.48  -6.48  -3.90  -3.29  -3.28  -3.28
         -1.93  -1.93  -1.93  -1.86  -1.86  -1.37  -1.36  -1.36   2.32   2.32
          2.32   3.21   3.65   3.65   4.23   4.23   4.23   4.98   5.40   5.40
          5.40   6.38   6.38   6.38   6.46   6.46   6.46   8.35   8.35   8.35
          8.36   8.36   8.86   9.24   9.24   9.24  15.34  15.34  15.34  15.61
         15.77  15.77  16.03  16.03  16.04  17.04  17.04  17.04  17.70  17.70
         17.70  18.53  18.53  18.53  19.38  19.39  19.39  20.10  20.10  21.56
         26.93  26.93  26.93  29.21  29.21  30.05  30.05  30.06  41.55  41.55
         41.56  48.11  56.95  57.00  57.00  67.01  67.01  67.04  74.39  74.39
         85.47  85.47  85.47  91.10
   7  1 -15.44 -14.73 -14.73 -14.72 -11.95 -11.95 -11.95 -11.13  -7.70  -7.70
         -7.70  -6.94  -6.94  -6.94  -6.44  -6.44  -3.86  -3.23  -3.23  -3.23
         -1.84  -1.84  -1.78  -1.78  -1.78  -1.16  -1.16  -1.16   1.87   1.88
          1.88   3.05   3.34   3.34   4.26   4.26   4.26   4.87   5.37   5.37
          5.37   6.50   6.50   6.50   6.57   6.57   6.57   8.51   8.51   8.51
          8.80   8.80   8.86   9.80   9.80   9.80  14.94  14.94  14.95  15.38
         15.38  15.57  15.65  15.65  15.66  16.86  16.86  16.86  17.76  17.76
         17.76  18.26  18.26  18.26  19.47  19.47  19.47  20.24  20.24  22.05
         26.35  26.35  26.35  29.39  29.39  30.62  30.62  30.62  38.08  38.08
         38.10  44.46  55.36  55.39  55.39  66.23  66.23  66.26  73.63  73.63
         82.75  82.75  82.75  87.50
   8  1 -15.58 -14.69 -14.69 -14.69 -11.89 -11.89 -11.89 -10.86  -7.93  -7.93
         -7.92  -7.03  -7.03  -7.03  -6.40  -6.40  -3.81  -3.25  -3.24  -3.24
         -1.82  -1.82  -1.55  -1.55  -1.55  -0.94  -0.94  -0.94   1.42   1.42
          1.42   2.84   3.05   3.05   4.32   4.32   4.32   4.81   5.35   5.35
          5.35   6.62   6.62   6.62   6.68   6.68   6.68   8.65   8.66   8.66
          8.77   9.23   9.23  10.39  10.39  10.39  14.55  14.55  14.56  15.01
         15.01  15.26  15.26  15.27  15.59  16.69  16.69  16.69  17.88  17.88
         17.89  17.96  17.96  17.96  19.58  19.58  19.58  20.37  20.37  22.60
         25.73  25.73  25.73  29.57  29.57  31.19  31.19  31.19  35.32  35.32
         35.34  41.42  54.54  54.56  54.56  64.99  64.99  65.01  72.87  72.87
         81.58  81.59  81.59  84.11
   9  1 -15.72 -14.65 -14.65 -14.65 -11.83 -11.83 -11.83 -10.58  -8.14  -8.14
         -8.14  -7.13  -7.13  -7.13  -6.36  -6.36  -3.76  -3.31  -3.30  -3.30
         -1.81  -1.81  -1.26  -1.26  -1.26  -0.69  -0.69  -0.69   0.96   0.97
          0.97   2.59   2.80   2.80   4.40   4.40   4.40   4.80   5.33   5.33
          5.33   6.72   6.73   6.73   6.78   6.78   6.79   8.61   8.81   8.81
          8.81   9.62   9.62  10.97  10.97  10.97  14.16  14.16  14.17  14.68
         14.68  14.88  14.88  14.88  15.65  16.55  16.55  16.55  17.64  17.64
         17.64  18.03  18.03  18.03  19.73  19.73  19.73  20.48  20.48  23.20
         25.10  25.10  25.10  29.76  29.76  31.50  31.50  31.50  33.34  33.34
         33.36  38.98  54.30  54.32  54.32  63.37  63.37  63.40  72.20  72.20
         80.80  81.17  81.18  81.18
  10  1 -15.85 -14.61 -14.61 -14.61 -11.78 -11.78 -11.78 -10.28  -8.34  -8.34
         -8.33  -7.23  -7.23  -7.23  -6.31  -6.31  -3.71  -3.40  -3.39  -3.39
         -1.81  -1.81  -0.93  -0.93  -0.93  -0.42  -0.42  -0.42   0.51   0.51
          0.51   2.31   2.57   2.57   4.48   4.48   4.48   4.84   5.33   5.33
          5.33   6.82   6.82   6.82   6.89   6.89   6.89   8.38   8.99   8.99
          8.99   9.94   9.94  11.54  11.54  11.54  13.77  13.77  13.77  14.43
         14.43  14.49  14.49  14.49  15.75  16.46  16.46  16.46  17.29  17.30
         17.30  18.17  18.17  18.17  19.91  19.91  19.91  20.57  20.57  23.83
         24.46  24.46  24.47  29.97  29.97  30.63  30.63  30.64  32.90  32.90
         32.91  37.08  54.52  54.53  54.53  61.38  61.38  61.39  71.75  71.75
         77.50  80.96  80.96  80.96
  11  1 -15.98 -14.56 -14.56 -14.56 -11.73 -11.73 -11.73  -9.97  -8.51  -8.51
         -8.51  -7.33  -7.32  -7.32  -6.26  -6.26  -3.64  -3.50  -3.50  -3.50
         -1.81  -1.81  -0.58  -0.58  -0.58  -0.14  -0.14  -0.14   0.05   0.06
          0.06   2.01   2.37   2.37   4.57   4.57   4.57   4.90   5.33   5.33
          5.33   6.91   6.91   6.91   6.99   6.99   6.99   8.10   9.20   9.20
          9.20  10.14  10.14  12.08  12.09  12.09  13.37  13.37  13.37  14.10
         14.10  14.11  14.31  14.31  15.87  16.40  16.41  16.41  16.94  16.94
         16.94  18.29  18.29  18.29  20.11  20.12  20.12  20.64  20.64  23.84
         23.84  23.85  24.43  29.24  29.24  29.25  30.19  30.19  33.16  33.16
         33.17  35.68  55.06  55.07  55.07  58.94  58.94  58.95  71.63  71.63
         74.24  80.61  80.61  80.62
  12  1 -16.10 -14.51 -14.51 -14.50 -11.69 -11.69 -11.69  -9.65  -8.66  -8.66
         -8.66  -7.42  -7.42  -7.42  -6.20  -6.20  -3.62  -3.61  -3.61  -3.58
         -1.83  -1.83  -0.39  -0.39  -0.39  -0.21  -0.21  -0.20   0.16   0.16
          0.16   1.71   2.21   2.21   4.67   4.67   4.67   4.98   5.34   5.34
          5.34   6.98   6.98   6.98   7.08   7.08   7.08   7.78   9.46   9.46
          9.46  10.19  10.19  12.54  12.55  12.55  13.01  13.01  13.01  13.71
         13.71  13.72  14.36  14.36  16.02  16.39  16.40  16.40  16.59  16.59
         16.59  18.39  18.39  18.39  20.33  20.34  20.34  20.70  20.70  23.23
         23.23  23.24  24.91  28.00  28.00  28.01  30.43  30.43  33.35  33.35
         33.36  34.78  55.83  55.85  55.85  56.06  56.06  56.06  71.08  71.95
         71.95  80.00  80.00  80.01
  13  1 -16.22 -14.44 -14.44 -14.44 -11.67 -11.67 -11.67  -9.31  -8.79  -8.79
         -8.78  -7.51  -7.51  -7.51  -6.13  -6.13  -3.73  -3.72  -3.72  -3.50
         -1.87  -1.87  -0.83  -0.83  -0.83   0.18   0.18   0.18   0.48   0.48
          0.48   1.39   2.08   2.08   4.76   4.76   4.76   5.06   5.35   5.35
          5.35   7.03   7.03   7.03   7.16   7.16   7.16   7.45   9.76   9.76
          9.76  10.09  10.09  12.42  12.42  12.42  13.20  13.21  13.21  13.32
         13.32  13.32  14.57  14.57  16.19  16.25  16.25  16.25  16.42  16.43
         16.43  18.46  18.46  18.47  20.56  20.56  20.56  20.73  20.73  22.65
         22.65  22.66  25.11  26.94  26.94  26.95  30.69  30.69  33.36  33.36
         33.37  34.44  52.87  52.87  52.87  56.76  56.78  56.78  68.13  72.84
         72.84  79.12  79.12  79.14
  14  1 -16.33 -14.38 -14.38 -14.37 -11.67 -11.67 -11.67  -8.97  -8.87  -8.87
         -8.87  -7.60  -7.60  -7.60  -6.07  -6.07  -3.84  -3.83  -3.83  -3.43
         -1.91  -1.91  -1.25  -1.25  -1.25   0.58   0.58   0.58   0.80   0.80
          0.80   1.06   1.99   1.99   4.85   4.85   4.85   5.13   5.38   5.38
          5.38   7.06   7.06   7.06   7.13   7.23   7.23   7.23   9.87   9.87
         10.11  10.11  10.11  12.01  12.01  12.01  12.91  12.91  12.91  13.66
         13.66  13.66  14.92  14.92  15.93  15.93  15.93  16.38  16.48  16.49
         16.49  18.51  18.51  18.51  20.76  20.76  20.79  20.79  20.79  22.08
         22.08  22.09  24.92  26.04  26.04  26.05  30.99  30.99  33.17  33.18
         33.18  34.63  49.60  49.61  49.61  57.79  57.81  57.81  65.54  74.43
         74.43  78.04  78.04  78.06
  15  1 -16.44 -14.30 -14.30 -14.30 -11.70 -11.70 -11.70  -8.92  -8.92  -8.91
         -8.63  -7.68  -7.68  -7.68  -5.99  -5.99  -3.94  -3.94  -3.94  -3.35
         -1.98  -1.98  -1.67  -1.66  -1.66   0.73   0.98   0.98   0.98   1.14
          1.14   1.14   1.94   1.94   4.93   4.93   4.93   5.18   5.41   5.41
          5.41   6.84   7.09   7.09   7.09   7.28   7.28   7.29   9.56   9.56
         10.48  10.48  10.48  11.59  11.59  11.59  12.48  12.48  12.48  14.10
         14.11  14.11  15.36  15.36  15.66  15.66  15.66  16.56  16.57  16.57
         16.59  18.52  18.52  18.52  20.76  20.76  21.00  21.00  21.00  21.54
         21.54  21.55  24.38  25.27  25.27  25.28  31.31  31.31  32.81  32.81
         32.81  35.18  46.50  46.51  46.51  58.88  58.90  58.90  63.51  76.80
         76.80  76.84  76.86  76.86
  16  1 -16.53 -14.22 -14.22 -14.22 -11.76 -11.76 -11.76  -8.92  -8.92  -8.92
         -8.27  -7.76  -7.76  -7.76  -5.92  -5.92  -4.04  -4.04  -4.04  -3.26
         -2.06  -2.06  -2.06  -2.06  -2.06   0.39   1.38   1.38   1.38   1.49
          1.49   1.49   1.93   1.93   5.01   5.01   5.01   5.17   5.45   5.45
          5.45   6.62   7.10   7.10   7.10   7.33   7.33   7.33   9.22   9.22
         10.75  10.75  10.76  11.30  11.30  11.30  12.02  12.02  12.02  14.53
         14.53  14.53  15.44  15.44  15.44  15.85  15.85  16.66  16.67  16.67
         16.81  18.51  18.51  18.52  20.76  20.76  21.02  21.02  21.03  21.18
         21.18  21.18  23.60  24.62  24.62  24.63  31.66  31.66  32.32  32.32
         32.32  35.81  43.74  43.75  43.75  59.98  60.00  60.00  62.28  75.54
         75.54  75.56  80.24  80.24
  17  1 -16.62 -14.13 -14.13 -14.13 -11.84 -11.84 -11.84  -8.89  -8.89  -8.89
         -7.92  -7.83  -7.83  -7.83  -5.84  -5.84  -4.13  -4.13  -4.13  -3.18
         -2.44  -2.44  -2.44  -2.15  -2.15   0.04   1.78   1.78   1.79   1.84
          1.84   1.84   1.95   1.95   5.07   5.09   5.09   5.09   5.49   5.49
          5.49   6.49   7.10   7.10   7.10   7.36   7.36   7.36   8.86   8.86
         10.53  10.53  10.53  11.54  11.54  11.54  11.55  11.55  11.55  14.92
         14.92  14.92  15.26  15.26  15.27  16.36  16.36  16.77  16.77  16.77
         17.04  18.49  18.49  18.49  20.54  20.54  20.55  20.73  20.73  21.30
         21.31  21.31  22.70  24.07  24.07  24.07  31.78  31.78  31.78  32.01
         32.01  36.20  41.41  41.42  41.42  61.07  61.10  61.10  62.08  74.24
         74.24  74.28  84.78  84.78
  18  1 -16.70 -14.04 -14.04 -14.03 -11.94 -11.94 -11.94  -8.83  -8.83  -8.83
         -7.89  -7.89  -7.89  -7.56  -5.77  -5.77  -4.21  -4.21  -4.21  -3.09
         -2.80  -2.79  -2.79  -2.25  -2.25  -0.30   1.99   1.99   2.18   2.18
          2.19   2.20   2.20   2.20   4.92   5.16   5.16   5.17   5.54   5.54
          5.54   6.46   7.09   7.09   7.09   7.37   7.37   7.37   8.50   8.50
         10.11  10.11  10.12  11.06  11.06  11.06  11.99  11.99  11.99  15.15
         15.15  15.15  15.26  15.27  15.27  16.86  16.86  16.87  16.88  16.88
         17.27  18.46  18.46  18.46  20.07  20.07  20.09  20.70  20.70  21.35
         21.36  21.36  21.78  23.59  23.59  23.60  31.27  31.28  31.28  32.37
         32.37  36.18  39.50  39.51  39.51  62.13  62.15  62.15  63.08  72.98
         72.98  73.02  90.62  90.62
  19  1 -16.76 -13.94 -13.94 -13.93 -12.06 -12.06 -12.06  -8.74  -8.74  -8.74
         -7.95  -7.95  -7.95  -7.20  -5.69  -5.69  -4.29  -4.28  -4.28  -3.13
         -3.13  -3.13  -3.01  -2.35  -2.35  -0.65   2.06   2.06   2.56   2.56
          2.56   2.58   2.58   2.58   4.74   5.24   5.24   5.24   5.60   5.60
          5.60   6.47   7.08   7.08   7.08   7.38   7.38   7.38   8.15   8.15
          9.68   9.68   9.68  10.56  10.56  10.56  12.47  12.47  12.47  15.08
         15.08  15.08  15.56  15.57  15.57  16.97  16.97  16.97  17.34  17.34
         17.46  18.43  18.43  18.43  19.64  19.64  19.65  20.65  20.65  20.92
         21.32  21.32  21.32  23.18  23.18  23.18  30.89  30.90  30.90  32.71
         32.71  35.75  37.96  37.97  37.97  63.12  63.15  63.15  65.33  71.78
         71.78  71.82  97.86  97.86
  20  1 -16.82 -13.83 -13.83 -13.83 -12.19 -12.19 -12.19  -8.64  -8.64  -8.64
         -8.00  -8.00  -8.00  -6.84  -5.62  -5.62  -4.35  -4.35  -4.35  -3.44
         -3.44  -3.44  -2.94  -2.46  -2.46  -1.00   2.15   2.15   2.91   2.91
          2.91   2.95   2.95   2.95   4.58   5.33   5.33   5.33   5.66   5.66
          5.66   6.52   7.07   7.07   7.07   7.38   7.38   7.38   7.82   7.82
          9.24   9.24   9.25  10.06  10.06  10.06  12.95  12.95  12.96  15.06
         15.06  15.06  15.80  15.81  15.81  17.04  17.05  17.05  17.57  17.78
         17.78  18.38  18.38  18.38  19.25  19.25  19.26  20.21  20.58  20.58
         21.21  21.21  21.21  22.82  22.82  22.82  30.69  30.71  30.71  33.03
         33.03  35.07  36.72  36.72  36.72  64.04  64.07  64.07  68.83  70.66
         70.66  70.69 106.48 106.48
  21  1 -16.87 -13.72 -13.72 -13.71 -12.33 -12.33 -12.33  -8.52  -8.52  -8.52
         -8.04  -8.04  -8.04  -6.50  -5.55  -5.55  -4.41  -4.40  -4.40  -3.73
         -3.72  -3.72  -2.87  -2.55  -2.55  -1.33   2.24   2.24   3.25   3.25
          3.25   3.31   3.31   3.31   4.48   5.42   5.42   5.43   5.73   5.73
          5.73   6.57   7.06   7.06   7.06   7.38   7.38   7.38   7.52   7.52
          8.82   8.82   8.82   9.57   9.57   9.57  13.44  13.44  13.44  15.08
         15.08  15.08  15.98  15.99  15.99  17.09  17.09  17.09  17.51  18.20
         18.20  18.32  18.32  18.33  18.88  18.88  18.89  19.76  20.49  20.49
         21.07  21.07  21.07  22.50  22.50  22.50  30.69  30.70  30.70  33.30
         33.30  34.35  35.70  35.71  35.71  64.87  64.89  64.89  69.63  69.63
         69.67  73.74 116.27 116.27
  22  1 -16.91 -13.60 -13.60 -13.59 -12.48 -12.48 -12.47  -8.41  -8.41  -8.41
         -8.08  -8.08  -8.08  -6.17  -5.48  -5.48  -4.45  -4.45  -4.45  -3.97
         -3.97  -3.97  -2.82  -2.64  -2.64  -1.65   2.34   2.34   3.56   3.56
          3.57   3.63   3.63   3.63   4.47   5.54   5.54   5.54   5.80   5.81
          5.81   6.62   7.05   7.05   7.05   7.25   7.25   7.38   7.38   7.38
          8.40   8.40   8.41   9.10   9.10   9.10  13.92  13.92  13.92  15.12
         15.12  15.12  16.10  16.11  16.11  17.09  17.09  17.09  17.25  18.24
         18.24  18.24  18.56  18.56  18.57  18.57  18.58  19.59  20.39  20.39
         20.97  20.97  20.97  22.21  22.21  22.21  30.85  30.86  30.86  33.54
         33.54  33.75  34.86  34.87  34.87  65.58  65.60  65.60  68.73  68.73
         68.77  80.75 126.72 126.72
  23  1 -16.94 -13.47 -13.47 -13.47 -12.62 -12.62 -12.62  -8.31  -8.31  -8.31
         -8.11  -8.11  -8.11  -5.87  -5.43  -5.43  -4.48  -4.48  -4.48  -4.18
         -4.17  -4.17  -2.78  -2.72  -2.72  -1.93   2.43   2.43   3.84   3.84
          3.84   3.90   3.90   3.90   4.58   5.68   5.68   5.68   5.89   5.89
          5.89   6.67   7.03   7.03   7.04   7.04   7.04   7.39   7.39   7.39
[...]
         75.73  86.30  93.18  95.34
  93  1 -16.01 -15.36 -14.25 -13.92 -12.10 -11.72 -10.32  -9.44  -9.34  -9.14
         -8.15  -7.92  -7.72  -7.48  -7.24  -6.35  -3.20  -3.16  -2.75  -2.09
         -2.01  -1.62  -1.60  -0.86  -0.84  -0.65  -0.37  -0.30   0.59   0.66
          1.25   2.02   2.04   2.06   2.72   3.53   3.99   4.03   4.64   5.66
          5.78   5.83   7.70   7.82   8.31   8.43   8.98   9.37   9.43  10.16
         10.54  10.95  11.05  11.29  11.40  11.74  12.06  12.32  12.92  13.25
         13.95  14.12  14.40  14.40  14.62  15.46  15.80  16.05  16.27  16.93
         17.54  17.68  18.54  18.76  19.33  20.54  21.61  22.12  22.53  22.96
         23.14  23.49  24.43  24.80  25.96  26.23  31.29  35.54  37.08  38.83
         40.91  49.17  50.87  53.34  54.32  63.88  64.03  64.58  66.82  70.47
         75.91  86.37  93.31  95.26
  94  1 -15.81 -15.20 -14.33 -14.32 -11.98 -11.98 -10.96 -10.18  -8.75  -8.75
         -7.77  -7.46  -7.46  -7.16  -6.66  -6.65  -3.31  -3.19  -2.95  -2.95
         -2.07  -1.44  -1.44  -1.27  -1.24  -0.48  -0.26   0.45   0.45   0.68
          0.90   0.90   2.90   2.90   3.24   3.39   4.97   5.10   5.16   5.45
          5.49   5.49   6.48   6.48   7.28   8.27   8.87   9.11   9.11   9.15
          9.42   9.43  11.04  11.33  11.34  11.77  13.04  13.30  13.43  13.44
         13.46  14.47  14.94  14.94  16.00  16.00  16.20  16.41  17.07  17.30
         17.30  17.83  17.83  19.05  19.17  19.17  20.64  21.76  21.87  23.50
         24.28  24.28  24.92  26.80  27.37  27.37  31.68  32.52  34.94  34.94
         40.69  48.82  53.93  53.93  57.21  59.02  63.10  65.43  65.43  66.71
         84.52  87.22  87.23  93.45
  95  1 -15.43 -14.90 -14.90 -14.56 -11.99 -11.61 -11.60 -10.99  -8.31  -7.89
         -7.89  -7.19  -6.94  -6.91  -6.91  -6.37  -3.32  -3.18  -2.88  -2.88
         -2.08  -2.07  -1.76  -1.70  -1.32  -0.95  -0.84  -0.84   1.41   1.41
          2.16   2.40   2.55   3.23   3.60   4.04   4.04   4.41   4.41   4.76
          5.17   7.02   7.03   7.14   7.14   7.78   8.07   8.62   8.87   8.87
          8.89   9.25   9.30  10.03  10.46  10.46  13.75  14.02  14.02  14.99
         15.00  15.04  15.38  15.52  15.69  15.93  16.38  16.38  17.52  18.23
         18.23  18.33  18.84  18.84  19.25  19.57  20.37  20.37  21.00  21.38
         26.62  26.73  26.73  28.13  28.38  31.95  31.95  33.94  38.40  39.13
         39.15  45.76  54.29  54.32  57.38  58.34  60.81  73.31  73.32  78.55
         83.62  83.64  84.39 100.78
  96  1 -15.42 -14.90 -14.90 -14.56 -11.99 -11.62 -11.60 -10.98  -8.30  -7.90
         -7.89  -7.20  -6.95  -6.91  -6.90  -6.38  -3.34  -3.19  -2.88  -2.86
         -2.07  -2.07  -1.77  -1.72  -1.32  -0.94  -0.83  -0.82   1.42   1.44
          2.16   2.40   2.58   3.20   3.58   4.02   4.03   4.39   4.41   4.76
          5.19   6.99   7.01   7.12   7.12   7.78   8.08   8.60   8.87   8.88
          8.89   9.26   9.33  10.04  10.47  10.50  13.77  14.01  14.02  14.98
         15.00  15.06  15.40  15.56  15.71  15.93  16.33  16.34  17.51  18.26
         18.27  18.31  18.82  18.84  19.26  19.53  20.35  20.36  20.99  21.41
         26.60  26.71  26.77  28.07  28.38  31.92  31.96  33.93  38.34  39.10
         39.16  45.70  54.39  54.47  57.26  58.30  60.59  73.21  73.23  78.60
         83.47  83.62  84.38  99.74
  97  1 -15.43 -14.90 -14.90 -14.56 -12.00 -11.61 -11.60 -10.98  -8.29  -7.89
         -7.89  -7.21  -6.94  -6.92  -6.91  -6.37  -3.33  -3.18  -2.88  -2.88
         -2.09  -2.08  -1.77  -1.71  -1.30  -0.93  -0.82  -0.82   1.44   1.44
          2.18   2.42   2.57   3.20   3.58   4.02   4.02   4.40   4.40   4.74
          5.16   7.00   7.01   7.14   7.14   7.78   8.07   8.59   8.86   8.86
          8.89   9.28   9.31  10.06  10.50  10.50  13.78  14.03  14.03  15.02
         15.02  15.04  15.40  15.51  15.69  15.91  16.33  16.34  17.49  18.24
         18.25  18.31  18.84  18.84  19.25  19.56  20.36  20.36  20.98  21.41
         26.64  26.71  26.71  28.04  28.44  31.92  31.92  33.90  38.40  39.07
         39.08  45.79  54.17  54.21  57.29  58.40  60.71  73.23  73.24  78.39
         83.46  83.47  84.41 100.09
  98  1 -15.59 -14.99 -14.99 -14.49 -11.61 -10.98 -10.98 -10.20  -9.24  -8.77
         -8.77  -8.19  -7.06  -7.00  -7.00  -6.30  -3.29  -2.69  -2.44  -2.44
         -1.75  -1.74  -1.40  -1.17  -0.11  -0.11  -0.10   0.08   0.44   0.44
          0.69   1.25   1.69   2.15   2.44   2.70   2.70   4.23   4.23   5.32
          5.69   7.59   7.60   8.15   8.68   8.69   9.27   9.65   9.86   9.94
          9.95  10.63  11.03  11.69  11.69  11.98  12.65  12.81  12.81  12.82
         13.42  13.71  13.72  14.29  14.80  15.02  15.03  15.45  17.27  18.03
         18.04  19.13  19.66  19.83  19.83  20.30  21.38  21.39  21.64  22.19
         25.41  25.46  25.81  25.81  27.41  35.65  35.66  39.96  42.04  42.05
         48.16  51.46  51.48  53.21  57.31  59.01  60.05  68.65  68.68  78.10
         78.79  80.51  80.52  96.43
  99  1 -15.60 -14.99 -14.99 -14.49 -11.60 -10.99 -10.98 -10.21  -9.24  -8.77
         -8.77  -8.18  -7.06  -7.00  -7.00  -6.30  -3.29  -2.68  -2.44  -2.44
         -1.73  -1.73  -1.40  -1.16  -0.13  -0.13  -0.11   0.06   0.42   0.42
          0.68   1.24   1.72   2.16   2.43   2.72   2.72   4.23   4.23   5.32
          5.70   7.59   7.59   8.16   8.69   8.69   9.27   9.63   9.84   9.97
          9.97  10.64  11.06  11.66  11.66  11.96  12.64  12.78  12.78  12.79
         13.39  13.69  13.70  14.30  14.81  15.07  15.08  15.46  17.28  18.03
         18.03  19.14  19.66  19.83  19.83  20.30  21.39  21.39  21.64  22.18
         25.40  25.44  25.81  25.82  27.45  35.66  35.67  39.96  42.14  42.16
         48.22  51.34  51.36  53.27  57.37  59.13  59.85  68.89  68.90  78.09
         78.86  80.59  80.61  96.35
 100  1 -15.43 -14.90 -14.90 -14.56 -11.99 -11.61 -11.60 -10.99  -8.31  -7.89
         -7.89  -7.19  -6.94  -6.91  -6.91  -6.37  -3.32  -3.18  -2.88  -2.88
         -2.08  -2.07  -1.76  -1.70  -1.32  -0.95  -0.84  -0.84   1.41   1.41
          2.16   2.40   2.55   3.23   3.60   4.04   4.04   4.41   4.41   4.76
          5.17   7.02   7.03   7.14   7.14   7.78   8.07   8.62   8.87   8.87
          8.89   9.25   9.30  10.03  10.46  10.46  13.75  14.02  14.02  14.99
         15.00  15.04  15.38  15.52  15.69  15.93  16.38  16.38  17.52  18.23
         18.23  18.33  18.84  18.84  19.25  19.57  20.37  20.37  21.00  21.38
         26.62  26.73  26.73  28.13  28.38  31.95  31.95  33.94  38.40  39.13
         39.15  45.76  54.29  54.32  57.38  58.34  60.81  73.31  73.32  78.55
         83.62  83.64  84.39 100.78
 101  1 -15.12 -14.78 -14.78 -14.78 -12.07 -12.06 -12.06 -11.69  -7.16  -7.16
         -7.16  -6.74  -6.74  -6.74  -6.52  -6.52  -3.94  -3.48  -3.48  -3.48
         -2.00  -2.00  -2.00  -1.88  -1.88  -1.61  -1.61  -1.61   2.89   2.90
          2.90   3.38   4.13   4.13   4.28   4.28   4.28   5.23   5.45   5.45
          5.45   6.21   6.21   6.21   6.31   6.31   6.31   7.69   7.69   7.96
          7.97   7.97   8.63   8.63   8.63   8.75  15.78  15.87  15.87  15.87
         16.31  16.31  16.53  16.53  16.54  17.18  17.18  17.18  17.93  17.93
         17.93  18.85  18.85  18.85  19.32  19.32  19.32  19.86  19.86  20.91
         27.66  27.66  27.66  28.99  28.99  29.36  29.36  29.36  47.99  47.99
         48.01  54.21  60.92  60.99  60.99  67.28  67.28  67.32  75.35  75.35
         93.66  93.66  93.68  97.15
 102  1 -15.12 -14.79 -14.78 -14.78 -12.08 -12.07 -12.06 -11.68  -7.15  -7.15
         -7.14  -6.75  -6.75  -6.73  -6.54  -6.52  -3.96  -3.48  -3.48  -3.46
         -2.01  -2.01  -1.99  -1.90  -1.89  -1.60  -1.60  -1.59   2.91   2.92
          2.93   3.36   4.13   4.15   4.27   4.27   4.27   5.24   5.42   5.44
          5.44   6.18   6.19   6.19   6.28   6.29   6.29   7.69   7.72   7.97
          7.98   7.98   8.64   8.65   8.65   8.76  15.79  15.85  15.87  15.87
         16.32  16.35  16.53  16.55  16.55  17.15  17.15  17.16  17.89  17.93
         17.93  18.87  18.87  18.87  19.29  19.31  19.31  19.83  19.86  20.96
         27.64  27.64  27.69  28.94  28.95  29.36  29.37  29.40  47.91  47.92
         48.14  54.18  60.77  60.79  61.15  67.35  67.42  67.45  74.43  74.81
         93.56  93.58  93.67  96.90
 103  1 -15.42 -14.90 -14.90 -14.56 -11.99 -11.62 -11.60 -10.98  -8.30  -7.90
         -7.89  -7.20  -6.95  -6.91  -6.90  -6.38  -3.34  -3.19  -2.88  -2.86
         -2.07  -2.07  -1.77  -1.72  -1.32  -0.94  -0.83  -0.82   1.42   1.44
          2.16   2.40   2.58   3.20   3.58   4.02   4.03   4.39   4.41   4.76
          5.19   6.99   7.01   7.12   7.12   7.78   8.08   8.60   8.87   8.88
          8.89   9.26   9.33  10.04  10.47  10.50  13.77  14.01  14.02  14.98
         15.00  15.06  15.40  15.56  15.71  15.93  16.33  16.34  17.51  18.26
         18.27  18.31  18.82  18.84  19.26  19.53  20.35  20.36  20.99  21.41
         26.60  26.71  26.77  28.07  28.38  31.92  31.96  33.93  38.34  39.10
         39.16  45.70  54.39  54.47  57.26  58.30  60.59  73.21  73.23  78.60
         83.47  83.62  84.38  99.74
 104  1 -15.59 -15.00 -14.99 -14.49 -11.60 -10.99 -10.99 -10.19  -9.24  -8.77
         -8.76  -8.18  -7.07  -7.00  -6.99  -6.31  -3.30  -2.70  -2.43  -2.42
         -1.74  -1.73  -1.40  -1.18  -0.12  -0.11  -0.10   0.06   0.43   0.44
          0.68   1.24   1.70   2.15   2.46   2.71   2.73   4.20   4.21   5.34
          5.72   7.56   7.57   8.14   8.70   8.71   9.29   9.62   9.86   9.95
          9.97  10.65  11.04  11.66  11.67  11.98  12.66  12.78  12.80  12.81
         13.41  13.68  13.69  14.34  14.81  15.02  15.03  15.47  17.30  18.05
         18.06  19.11  19.64  19.83  19.84  20.31  21.38  21.39  21.63  22.18
         25.39  25.42  25.82  25.85  27.42  35.64  35.68  39.89  42.14  42.16
         48.01  51.55  51.60  53.35  57.14  59.10  60.00  68.63  68.70  78.08
         78.94  80.46  80.52  96.41
 105  1 -15.59 -15.00 -14.99 -14.49 -11.60 -10.99 -10.99 -10.19  -9.24  -8.77
         -8.76  -8.18  -7.07  -7.00  -6.99  -6.31  -3.30  -2.70  -2.43  -2.42
         -1.74  -1.73  -1.40  -1.18  -0.12  -0.11  -0.10   0.06   0.43   0.44
          0.68   1.24   1.70   2.15   2.46   2.71   2.73   4.20   4.21   5.34
          5.72   7.56   7.57   8.14   8.70   8.71   9.29   9.62   9.86   9.95
          9.97  10.65  11.04  11.66  11.67  11.98  12.66  12.78  12.80  12.81
         13.41  13.68  13.69  14.34  14.81  15.02  15.03  15.47  17.30  18.05
         18.06  19.11  19.64  19.83  19.84  20.31  21.38  21.39  21.63  22.18
         25.39  25.42  25.82  25.85  27.42  35.64  35.68  39.89  42.14  42.16
         48.01  51.55  51.60  53.35  57.14  59.10  60.00  68.63  68.70  78.08
         78.94  80.46  80.52  96.41
 106  1 -15.42 -14.90 -14.90 -14.56 -11.99 -11.62 -11.60 -10.98  -8.30  -7.90
         -7.89  -7.20  -6.95  -6.91  -6.90  -6.38  -3.34  -3.19  -2.88  -2.86
         -2.07  -2.07  -1.77  -1.72  -1.32  -0.94  -0.83  -0.82   1.42   1.44
          2.16   2.40   2.58   3.20   3.58   4.02   4.03   4.39   4.41   4.76
          5.19   6.99   7.01   7.12   7.12   7.78   8.08   8.60   8.87   8.88
          8.89   9.26   9.33  10.04  10.47  10.50  13.77  14.01  14.02  14.98
         15.00  15.06  15.40  15.56  15.71  15.93  16.33  16.34  17.51  18.26
         18.27  18.31  18.82  18.84  19.26  19.53  20.35  20.36  20.99  21.41
         26.60  26.71  26.77  28.07  28.38  31.92  31.96  33.93  38.34  39.10
         39.16  45.70  54.39  54.47  57.26  58.30  60.59  73.21  73.23  78.60
         83.47  83.62  84.38  99.74
 107  1 -15.12 -14.79 -14.78 -14.78 -12.08 -12.07 -12.06 -11.68  -7.15  -7.15
         -7.14  -6.75  -6.75  -6.73  -6.54  -6.52  -3.96  -3.48  -3.48  -3.46
         -2.01  -2.01  -1.99  -1.90  -1.89  -1.60  -1.60  -1.59   2.91   2.92
          2.93   3.36   4.13   4.15   4.27   4.27   4.27   5.24   5.42   5.44
          5.44   6.18   6.19   6.19   6.28   6.29   6.29   7.69   7.72   7.97
          7.98   7.98   8.64   8.65   8.65   8.76  15.79  15.85  15.87  15.87
         16.32  16.35  16.53  16.55  16.55  17.15  17.15  17.16  17.89  17.93
         17.93  18.87  18.87  18.87  19.29  19.31  19.31  19.83  19.86  20.96
         27.64  27.64  27.69  28.94  28.95  29.36  29.37  29.40  47.91  47.92
         48.14  54.18  60.77  60.79  61.15  67.35  67.42  67.45  74.43  74.81
         93.56  93.58  93.67  96.90
 108  1 -15.12 -14.79 -14.78 -14.78 -12.08 -12.07 -12.06 -11.68  -7.15  -7.15
         -7.14  -6.75  -6.75  -6.73  -6.54  -6.52  -3.96  -3.48  -3.48  -3.46
         -2.01  -2.01  -1.99  -1.90  -1.89  -1.60  -1.60  -1.59   2.91   2.92
          2.93   3.36   4.13   4.15   4.27   4.27   4.27   5.24   5.42   5.44
          5.44   6.18   6.19   6.19   6.28   6.29   6.29   7.69   7.72   7.97
          7.98   7.98   8.64   8.65   8.65   8.76  15.79  15.85  15.87  15.87
         16.32  16.35  16.53  16.55  16.55  17.15  17.15  17.16  17.89  17.93
         17.93  18.87  18.87  18.87  19.29  19.31  19.31  19.83  19.86  20.96
         27.64  27.64  27.69  28.94  28.95  29.36  29.37  29.40  47.91  47.92
         48.14  54.18  60.77  60.79  61.15  67.35  67.42  67.45  74.43  74.81
         93.56  93.58  93.67  96.90
siesta: Fermi energy =      -4.971807 eV

siesta: Program's energy decomposition (eV):
siesta: Ebs     =      -330.698941
siesta: Eions   =      1510.441798
siesta: Ena     =       471.767708
siesta: Ekin    =       318.348563
siesta: Enl     =       126.918692
siesta: DEna    =         6.851769
siesta: DUscf   =         1.508483
siesta: DUext   =         0.000000
siesta: Exc     =      -445.613925
siesta: eta*DQ  =         0.000000
siesta: Emadel  =         0.000000
siesta: Emeta   =         0.000000
siesta: Emolmec =         0.000000
siesta: Ekinion =         0.000000
siesta: Eharris =     -1030.672265
siesta: Etot    =     -1030.660509
siesta: FreeEng =     -1030.660509

siesta: Final energy (eV):
siesta:  Band Struct. =    -330.698941
siesta:       Kinetic =     318.348563
siesta:       Hartree =      60.298084
siesta:    Ext. field =       0.000000
siesta:   Exch.-corr. =    -445.613925
siesta:  Ion-electron =    -421.354224
siesta:       Ion-ion =    -542.339006
siesta:       Ekinion =       0.000000
siesta:         Total =   -1030.660509

siesta: Stress tensor (static) (eV/Ang**3):
siesta:     0.003682    0.000387    0.000387
siesta:     0.000387    0.003682    0.000387
siesta:     0.000387    0.000387    0.003682

siesta: Constrained stress tensor (static) (eV/Ang**3):
siesta:     0.003682    0.000387    0.000387
siesta:     0.000387    0.003682    0.000387
siesta:     0.000387    0.000387    0.003682

siesta: Cell volume =        169.410701 Ang**3

siesta: Pressure (static):
siesta:                Solid            Molecule  Units
siesta:          -0.00004010         -0.00005551  Ry/Bohr**3
siesta:          -0.00368216         -0.00509636  eV/Ang**3
siesta:          -5.89952738         -8.16535548  kBar
(Free)E+ p_basis*V_orbitals  =       -1021.722779
(Free)Eharris+ p_basis*V_orbitals  =       -1021.739599

* Maximum dynamic memory allocated : Node    0 =    82 MB

* Maximum memory occured during init_pulay_arrrays            

timer: CPU execution times:
timer:  Routine       Calls   Time/call    Tot.time        %
timer:  siesta            1     685.595     685.595   100.00
timer:  Setup             1       0.128       0.128     0.02
timer:  bands             3       0.508       1.524     0.22
timer:  writewave         3       0.007       0.020     0.00
timer:  KSV_init          1       0.000       0.000     0.00
timer:  IterMD            9      75.980     683.823    99.74
timer:  hsparse           9       0.151       1.356     0.20
timer:  overlap           9       0.122       1.100     0.16
timer:  IterSCF          46      12.350     568.096    82.86
timer:  kinefsm          18       0.118       2.124     0.31
timer:  nlefsm           18       3.187      57.364     8.37
timer:  DHSCF            55       6.782     372.987    54.40
timer:  DHSCF1            9       0.043       0.384     0.06
timer:  DHSCF2            9       1.965      17.681     2.58
timer:  REORD           348       0.000       0.036     0.01
timer:  POISON           64       0.005       0.292     0.04
timer:  DHSCF3           55       5.933     326.328    47.60
timer:  rhoofd           55       2.772     152.473    22.24
timer:  cellXC           55       0.121       6.672     0.97
timer:  vmat             55       3.033     166.831    24.33
timer:  MolMec           18       0.000       0.000     0.00
timer:  diagon           46       5.350     246.087    35.89
timer:  c-eigval       5069       0.015      74.633    10.89
timer:  c-buildHS      5069       0.010      51.843     7.56
timer:  cdiag         10038       0.007      70.205    10.24
timer:  cdiag1        10038       0.001       5.141     0.75
timer:  cdiag2        10038       0.002      18.043     2.63
timer:  cdiag3        10038       0.005      45.589     6.65
timer:  cdiag4        10038       0.000       1.152     0.17
timer:  c-eigvec       4969       0.020      99.032    14.44
timer:  c-buildD       4968       0.015      73.475    10.72
timer:  DHSCF4            9       3.175      28.574     4.17
timer:  dfscf             9       2.971      26.738     3.90
timer:  overfsm           9       0.112       1.012     0.15
timer:  optical           1       0.000       0.000     0.00
  

elaps: ELAPSED times:
elaps:  Routine       Calls   Time/call    Tot.time        %
elaps:  siesta            1     688.460     688.460   100.00
elaps:  Setup             1       0.134       0.134     0.02
elaps:  bands             3       0.508       1.525     0.22
elaps:  writewave         3       0.007       0.020     0.00
elaps:  KSV_init          1       0.001       0.001     0.00
elaps:  IterMD            9      76.297     686.675    99.74
elaps:  hsparse           9       0.152       1.368     0.20
elaps:  overlap           9       0.123       1.107     0.16
elaps:  IterSCF          46      12.402     570.506    82.87
elaps:  kinefsm          18       0.119       2.134     0.31
elaps:  nlefsm           18       3.198      57.571     8.36
elaps:  DHSCF            55       6.808     374.457    54.39
elaps:  DHSCF1            9       0.043       0.386     0.06
elaps:  DHSCF2            9       1.972      17.752     2.58
elaps:  REORD           348       0.000       0.033     0.00
elaps:  POISON           64       0.005       0.300     0.04
elaps:  DHSCF3           55       5.957     327.629    47.59
elaps:  rhoofd           55       2.782     153.018    22.23
elaps:  cellXC           55       0.122       6.694     0.97
elaps:  vmat             55       3.047     167.573    24.34
elaps:  MolMec           18       0.000       0.000     0.00
elaps:  diagon           46       5.373     247.181    35.90
elaps:  c-eigval       5069       0.015      74.958    10.89
elaps:  c-buildHS      5069       0.010      52.065     7.56
elaps:  cdiag         10038       0.007      70.751    10.28
elaps:  cdiag1        10038       0.001       5.283     0.77
elaps:  cdiag2        10038       0.002      18.483     2.68
elaps:  cdiag3        10038       0.005      45.457     6.60
elaps:  cdiag4        10038       0.000       1.293     0.19
elaps:  c-eigvec       4969       0.020      99.343    14.43
elaps:  c-buildD       4968       0.015      73.973    10.74
elaps:  DHSCF4            9       3.186      28.674     4.16
elaps:  dfscf             9       2.982      26.834     3.90
elaps:  overfsm           9       0.113       1.014     0.15
elaps:  optical           1       0.000       0.000     0.00
  
>> End of run:   9-MAY-2013  22:17:46

=====================================================================================
=   BAD TERMINATION OF ONE OF YOUR APPLICATION PROCESSES
=   EXIT CODE: 134
=   CLEANING UP REMAINING PROCESSES
=   YOU CAN IGNORE THE BELOW CLEANUP MESSAGES
=====================================================================================
APPLICATION TERMINATED WITH THE EXIT STRING: Aborted (signal 6)
