Siesta Version:                                        siesta-3.2
Architecture  : i686-apple-darwin10.8.0--unknown
Compiler flags: g95 -g -O2
SERIAL version

* Running in serial mode
>> Start of run:  13-MAY-2013  17:45:09

                           ***********************       
                           *  WELCOME TO SIESTA  *       
                           ***********************       

reinit: Reading from standard input
************************** Dump of input data file ****************************
# FDF for silicon
SystemName             silicon          # Descriptive name of the system
SystemLabel            si          # Short name for naming files
NumberOfAtoms 8
NumberOfSpecies 1
%block ChemicalSpeciesLabel
1 14 Si
%endblock ChemicalSpeciesLabel
LatticeConstant  5.05 Ang
##Basis set Definition##
PAO.BasisType          split        # Type of PAO basis set
PAO.EnergyShift        50 meV
PAO.BasisSize          DZP          # (DZP) Double-z + polarization
#%block LatticeVectors
#0.500 0.500 0.000
#0.500 0.000 0.500
#0.000 0.500 0.500
#%endblock LatticeVectors
AtomicCoordinatesFormat NotScaledCartesianAng
%block AtomicCoordinatesAndAtomicSpecies
	0.00000000	0.00000000	0.00000000  1 Si  1
	1.36000000	1.36000000	1.36000000  1 Si  2
	2.72000000	2.72000000	0.00000000  1 Si  3
	4.08000000	4.08000000	1.36000000  1 Si  4
	2.72000000	0.00000000	2.72000000  1 Si  5
	4.08000000	1.36000000	4.08000000  1 Si  6
	0.00000000	2.72000000	2.72000000  1 Si  7
	1.36000000	4.08000000	4.08000000  1 Si  8
%endblock AtomicCoordinatesAndAtomicSpecies
MeshCutoff 260.0 Ry # 100, 120, 180, 260
kgrid_cutoff 30.0 Bohr # 30, 35, 40, 45
DM.Mixingweight  0.3
DM.NumberPulay    3
DM.Tolerance      1.d-3
DM.UseSaveDM      true
ElectronicTemperature 25 meV
SolutionMethod    diagon
XC.functional     LDA	    # Local Density Approximation
XC.authors        CA           # Ceperley-Alder
SpinPolarized     false
MD.TypeOfRun           CG           # Type of dynamics:
MD.VariableCell        true
MD.NumCGsteps          100          # Number of CG steps for coordinate optimization
MD.MaxCGDispl          0.2 Bohr     # Maximum atomic displacement
                                    #   in one CG step (Bohr)
MD.MaxForceTol         0.04 eV/Ang  # Tolerance in the maximum
                                    #   atomic force (Ry/Bohr)
				
##Output Specification##
WriteMDhistory         true         # Trajectory information
WriteCoorStep          true
WriteCoorXmol          true
WriteMDXmol            true
WriteEigenvalues true
WriteKbands      true
WriteBands       true
WriteWaveFunctions true
WriteMullikenPoP   1
%block BandLines
1	1.000	1.000 1.000 L
25	0.000	0.000	0.000 \Gamma
30	2.000	0.000	0.000 X
10	2.000	0.500	0.500 U
35	0.000	0.000	0.000 \Gamma
%endblock BandLines
%block WaveFuncKPoints
0.0 0.0 0.0 from 1 to 50 # > 16 = 4/2*8 (Valenzelektronen/2, Atomzahl ...)
%endblock WaveFuncKpoints
************************** End of input data file *****************************

reinit: -----------------------------------------------------------------------
reinit: System Name: silicon
reinit: -----------------------------------------------------------------------
reinit: System Label: si                                                          
reinit: -----------------------------------------------------------------------

initatom: Reading input for the pseudopotentials and atomic orbitals ----------
 Species number:  1  Label: Si Atomic number: 14
Ground state valence configuration:   3s02  3p02
Reading pseudopotential information in formatted form from Si.psf

Valence configuration for pseudopotential generation:
3s( 2.00) rc: 1.75
3p( 2.00) rc: 1.94
3d( 0.00) rc: 2.09
4f( 0.00) rc: 2.09
For Si, standard SIESTA heuristics set lmxkb to 3
 (one more than the basis l, including polarization orbitals).
Use PS.lmax or PS.KBprojectors blocks to override.

<basis_specs>
===============================================================================
Si                   Z=  14    Mass=  28.090        Charge= 0.17977+309
Lmxo=1 Lmxkb= 3    BasisType=split      Semic=F
L=0  Nsemic=0  Cnfigmx=3
          n=1  nzeta=2  polorb=0
            splnorm:   0.15000    
               vcte:    0.0000    
               rinn:    0.0000    
                rcs:    0.0000      0.0000    
            lambdas:    1.0000      1.0000    
L=1  Nsemic=0  Cnfigmx=3
          n=1  nzeta=2  polorb=1
            splnorm:   0.15000    
               vcte:    0.0000    
               rinn:    0.0000    
                rcs:    0.0000      0.0000    
            lambdas:    1.0000      1.0000    
-------------------------------------------------------------------------------
L=0  Nkbl=1  erefs: 0.17977+309
L=1  Nkbl=1  erefs: 0.17977+309
L=2  Nkbl=1  erefs: 0.17977+309
L=3  Nkbl=1  erefs: 0.17977+309
===============================================================================
</basis_specs>

atom: Called for Si                    (Z =  14)

read_vps: Pseudopotential generation method:
read_vps: ATM3      Troullier-Martins                       
Total valence charge:    4.00000

xc_check: Exchange-correlation functional:
xc_check: Ceperley-Alder
V l=0 = -2*Zval/r beyond r=  2.5494
V l=1 = -2*Zval/r beyond r=  2.5494
V l=2 = -2*Zval/r beyond r=  2.5494
V l=3 = -2*Zval/r beyond r=  2.5494
All V_l potentials equal beyond r=  2.0613
This should be close to max(r_c) in ps generation
All pots = -2*Zval/r beyond r=  2.5494

VLOCAL1: 99.0% of the norm of Vloc inside     10.216 Ry
VLOCAL1: 99.9% of the norm of Vloc inside     23.282 Ry
atom: Maximum radius for 4*pi*r*r*local-pseudopot. charge    2.45560
atom: Maximum radius for r*vlocal+2*Zval:    2.14012
GHOST: No ghost state for L =  0
GHOST: No ghost state for L =  1
GHOST: No ghost state for L =  2
GHOST: No ghost state for L =  3

KBgen: Kleinman-Bylander projectors: 
   l= 0   rc=  2.782581   el= -0.796617   Ekb=  4.840502   kbcos=  0.288423
   l= 1   rc=  2.888916   el= -0.307040   Ekb=  1.512733   kbcos=  0.296968
   l= 2   rc=  2.962054   el=  0.002313   Ekb= -2.156507   kbcos= -0.061834
   l= 3   rc=  3.192765   el=  0.003402   Ekb= -0.600958   kbcos= -0.007408

KBgen: Total number of  Kleinman-Bylander projectors:   16
atom: -------------------------------------------------------------------------

atom: SANKEY-TYPE ORBITALS:
atom: Selected multiple-zeta basis: split     

SPLIT: Orbitals with angular momentum L= 0

SPLIT: Basis orbitals for state 3s

SPLIT: PAO cut-off radius determined from an
SPLIT: energy shift=  0.003675 Ry

   izeta = 1
                 lambda =    1.000000
                     rc =    6.116033
                 energy =   -0.793486
                kinetic =    0.528761
    potential(screened) =   -1.322246
       potential(ionic) =   -3.766038

   izeta = 2
                 rmatch =    4.530823
              splitnorm =    0.150000
                 energy =   -0.697320
                kinetic =    0.853435
    potential(screened) =   -1.550756
       potential(ionic) =   -4.120809

SPLIT: Orbitals with angular momentum L= 1

SPLIT: Basis orbitals for state 3p

SPLIT: PAO cut-off radius determined from an
SPLIT: energy shift=  0.003675 Ry

   izeta = 1
                 lambda =    1.000000
                     rc =    7.853192
                 energy =   -0.303674
                kinetic =    0.798475
    potential(screened) =   -1.102149
       potential(ionic) =   -3.307324

   izeta = 2
                 rmatch =    5.397360
              splitnorm =    0.150000
                 energy =   -0.229357
                kinetic =    1.170483
    potential(screened) =   -1.399841
       potential(ionic) =   -3.814095

POLgen: Perturbative polarization orbital with L=  2

POLgen: Polarization orbital for state 3p

   izeta = 1
                     rc =    7.853192
                 energy =    0.331669
                kinetic =    1.088595
    potential(screened) =   -0.756926
       potential(ionic) =   -2.714870
atom: Total number of Sankey-type orbitals: 13

atm_pop: Valence configuration (for local Pseudopot. screening):
 3s( 2.00)                                                            
 3p( 2.00)                                                            
Vna: chval, zval:    4.00000   4.00000

Vna:  Cut-off radius for the neutral-atom potential:   7.853192

atom: _________________________________________________________________________

prinput: Basis input ----------------------------------------------------------

PAO.BasisType split     

%block ChemicalSpeciesLabel
    1   14 Si                      # Species index, atomic number, species label
%endblock ChemicalSpeciesLabel

%block PAO.Basis                 # Define Basis set
Si                    2                    # Species label, number of l-shells
 n=3   0   2                         # n, l, Nzeta 
   6.116      4.531   
   1.000      1.000   
 n=3   1   2 P   1                   # n, l, Nzeta, Polarization, NzetaPol
   7.853      5.397   
   1.000      1.000   
%endblock PAO.Basis

prinput: ----------------------------------------------------------------------

coor:   Atomic-coordinates input format  =     Cartesian coordinates
coor:                                          (in Angstroms)

siesta: Atomic coordinates (Bohr) and species
siesta:      0.00000   0.00000   0.00000  1        1
siesta:      2.57003   2.57003   2.57003  1        2
siesta:      5.14006   5.14006   0.00000  1        3
siesta:      7.71009   7.71009   2.57003  1        4
siesta:      5.14006   0.00000   5.14006  1        5
siesta:      7.71009   2.57003   7.71009  1        6
siesta:      0.00000   5.14006   5.14006  1        7
siesta:      2.57003   7.71009   7.71009  1        8

siesta: System type = bulk      

initatomlists: Number of atoms, orbitals, and projectors:      8   104   128

siesta: ******************** Simulation parameters ****************************
siesta:
siesta: The following are some of the parameters of the simulation.
siesta: A complete list of the parameters used, including default values,
siesta: can be found in file out.fdf
siesta:
redata: Non-Collinear-spin run           =     F
redata: SpinPolarized (Up/Down) run      =     F
redata: Number of spin components        =     1
redata: Long output                      =     F
redata: Number of Atomic Species         =        1
redata: Charge density info will appear in .RHO file
redata: Write Mulliken Pop.              =     Atomic and Orbital charges
redata: Mesh Cutoff                      =   260.0000  Ry
redata: Net charge of the system         =     0.0000 |e|
redata: Max. number of SCF Iter          =       50
redata: Performing Pulay mixing using    =     3 iterations
redata: Mix DM in first SCF step ?       =     F
redata: Write Pulay info on disk?        =     F
redata: Discard 1st Pulay DM after  kick =     F
redata: New DM Mixing Weight             =     0.3000
redata: New DM Occupancy tolerance       = 0.000000000001
redata: No kicks to SCF
redata: DM Mixing Weight for Kicks       =     0.5000
redata: DM Tolerance for SCF             =     0.001000
redata: Require Energy convergence for SCF =     F
redata: DM Energy tolerance for SCF      =     0.000100 eV
redata: Require Harris convergence for SCF =     F
redata: DM Harris energy tolerance for SCF =     0.000100 eV
redata: Using Saved Data (generic)   =     F
redata: Use continuation files for DM    =     T
redata: Neglect nonoverlap interactions  =     F
redata: Method of Calculation            =     Diagonalization
redata: Divide and Conquer               =     T
redata: Electronic Temperature           =     0.0018  Ry
redata: Fix the spin of the system       =     F
redata: Dynamics option                  =     CG coord. optimization
redata: Variable cell                    =     T
redata: Use continuation files for CG    =     F
redata: Max atomic displ per move        =     0.2000  Bohr
redata: Maximum number of CG moves       =      100
redata: Force tolerance                  =     0.0016  Ry/Bohr
redata: Stress tolerance                 =     1.0000  GPa
redata: ***********************************************************************
Total number of electrons:    32.000000
Total ionic charge:    32.000000
 Kpoints in:  196 . Kpoints trimmed:  172

siesta: k-grid: Number of k-points =   172
siesta: k-grid: Cutoff (effective) =    17.675 Ang
siesta: k-grid: Supercell and displacements
siesta: k-grid:    0   7   0      0.000
siesta: k-grid:    0   0   7      0.000
siesta: k-grid:    7   0   0      0.000
Naive supercell factors:     5    5    5

superc: Internal auxiliary supercell:     5 x     5 x     5  =     125
superc: Number of atoms, orbitals, and projectors:   1000  13000  16000

* Maximum dynamic memory allocated =     2 MB

siesta:                 ==============================
                            Begin CG move =      0
                        ==============================

outcoor: Atomic coordinates (Ang):                          
    0.00000000    0.00000000    0.00000000   1       1  Si
    1.36000000    1.36000000    1.36000000   1       2  Si
    2.72000000    2.72000000    0.00000000   1       3  Si
    4.08000000    4.08000000    1.36000000   1       4  Si
    2.72000000    0.00000000    2.72000000   1       5  Si
    4.08000000    1.36000000    4.08000000   1       6  Si
    0.00000000    2.72000000    2.72000000   1       7  Si
    1.36000000    4.08000000    4.08000000   1       8  Si

superc: Internal auxiliary supercell:     5 x     5 x     5  =     125
superc: Number of atoms, orbitals, and projectors:   1000  13000  16000

outcell: Unit cell vectors (Ang):
        5.050000    0.000000    0.000000
        0.000000    5.050000    0.000000
        0.000000    0.000000    5.050000

outcell: Cell vector modules (Ang)   :    5.050000    5.050000    5.050000
outcell: Cell angles (23,13,12) (deg):     90.0000     90.0000     90.0000
outcell: Cell volume (Ang**3)        :    128.7876
New_DM. Step:     1
Initializing Density Matrix...

InitMesh: MESH =    50 x    50 x    50 =      125000
InitMesh: Mesh cutoff (required, used) =   260.000   270.931 Ry

* Maximum dynamic memory allocated =   188 MB

stepf: Fermi-Dirac step function

siesta: Program's energy decomposition (eV):
siesta: Ebs     =      -392.866946
siesta: Eions   =      1510.441798
siesta: Ena     =       449.532726
siesta: Ekin    =       288.938730
siesta: Enl     =       148.596931
siesta: DEna    =         0.000001
siesta: DUscf   =         0.000000
siesta: DUext   =         0.000000
siesta: Exc     =      -267.579657
siesta: eta*DQ  =         0.000000
siesta: Emadel  =         0.000000
siesta: Emeta   =         0.000000
siesta: Emolmec =         0.000000
siesta: Ekinion =         0.000000
siesta: Eharris =      -856.008406
siesta: Etot    =      -890.953068
siesta: FreeEng =      -890.953068

siesta: iscf   Eharris(eV)      E_KS(eV)   FreeEng(eV)   dDmax  Ef(eV)
siesta:    1     -856.0084     -890.9531     -890.9531  1.6651 -6.2477
timer: Routine,Calls,Time,% = IterSCF        1      66.709  98.57
elaps: Routine,Calls,Wall,% = IterSCF        1      67.213  98.53
siesta:    2     -855.5132     -854.9053     -854.9066  0.2410 -5.9064
siesta:    3     -855.2319     -858.9715     -858.9747  0.1820 -6.0083
siesta:    4     -855.2270     -855.6698     -855.6726  0.0274 -6.0085
siesta:    5     -855.2260     -855.1760     -855.1786  0.0060 -6.0109
siesta:    6     -855.2259     -855.2621     -855.2645  0.0040 -6.0133
siesta:    7     -855.2259     -855.2631     -855.2655  0.0031 -6.0137
siesta:    8     -855.2258     -855.2469     -855.2494  0.0014 -6.0138
siesta:    9     -855.2258     -855.2353     -855.2378  0.0006 -6.0136

siesta: E_KS(eV) =             -855.2264

siesta: E_KS - E_eggbox =      -855.2264

siesta: Atomic forces (eV/Ang):
----------------------------------------
   Tot   -0.000032   -0.000031   -0.000048
----------------------------------------
   Max    4.559688
   Res    3.046326    sqrt( Sum f_i^2 / 3N )
----------------------------------------
   Max    4.559688    constrained

Stress-tensor-Voigt (kbar):     -383.25     -383.25     -383.25      126.04      126.04      126.04
(Free)E + p*V (eV/cell)     -824.4223
Target enthalpy (eV/cell)     -855.2289

siesta: Stress tensor (static) (eV/Ang**3):
        -0.239205    0.078668    0.078668
         0.078668   -0.239205    0.078668
         0.078668    0.078668   -0.239205

siesta: Pressure (static):        383.25280085  kBar

siesta: Stress tensor (total) (eV/Ang**3):
        -0.239205    0.078668    0.078668
         0.078668   -0.239205    0.078668
         0.078668    0.078668   -0.239205

siesta: Pressure (total):        383.25280085  kBar

mulliken: Mulliken Atomic and Orbital Populations:

Species: Si                  
Atom  Qatom  Qorb
               3s      3s      3py     3pz     3px     3py     3pz     3px     
               3Pdxy   3Pdyz   3Pdz2   3Pdxz   3Pdx2-y2
   1  4.308   0.220   0.832   0.077   0.077   0.077   0.708   0.708   0.708
              0.191   0.191   0.165   0.191   0.165
   2  3.835   0.650   0.587   0.062   0.062   0.062   0.609   0.609   0.609
              0.139   0.139   0.083   0.139   0.083
   3  3.904   0.520   0.644   0.000   0.105   0.000   0.676   0.618   0.676
              0.163   0.149   0.089   0.149   0.115
   4  4.049   0.385   0.718   0.064  -0.053   0.064   0.682   0.747   0.682
              0.163   0.169   0.151   0.169   0.107
   5  3.904   0.520   0.644   0.105   0.000   0.000   0.618   0.676   0.676
              0.149   0.149   0.109   0.163   0.095
   6  4.049   0.385   0.718  -0.053   0.064   0.064   0.747   0.682   0.682
              0.169   0.169   0.118   0.163   0.140
   7  3.904   0.520   0.644   0.000   0.000   0.105   0.676   0.676   0.618
              0.149   0.163   0.109   0.149   0.095
   8  4.049   0.385   0.718   0.064   0.064  -0.053   0.682   0.682   0.747
              0.169   0.163   0.118   0.169   0.140

mulliken: Qtot =       32.000

cgvc: No target stress found, assuming hydrostatic MD.TargetPressure.

cgvc: Target stress (kBar)
cgvc:        -0.000       0.000       0.000
cgvc:         0.000      -0.000       0.000
cgvc:         0.000       0.000      -0.000

* Maximum dynamic memory allocated =   189 MB

siesta:                 ==============================
                            Begin CG move =      1
                        ==============================

outcoor: Atomic coordinates (Ang):                          
    0.01810273    0.01810272    0.01810270   1       1  Si
    1.36638600    1.36638600    1.36638593   1       2  Si
    2.72937116    2.72937115    0.00529224   1       3  Si
    4.06999464    4.06999464    1.37048471   1       4  Si
    2.72937116    0.00529227    2.72937116   1       5  Si
    4.06999467    1.37048471    4.06999467   1       6  Si
    0.00529226    2.72937116    2.72937116   1       7  Si
    1.37048471    4.06999468    4.06999468   1       8  Si
 Kpoints in:  196 . Kpoints trimmed:  172

siesta: k-grid: Number of k-points =   172
siesta: k-grid: Cutoff (effective) =    17.798 Ang
siesta: k-grid: Supercell and displacements
siesta: k-grid:    0   7   0      0.000
siesta: k-grid:    7   0   0      0.000
siesta: k-grid:    0   0   7      0.000
Naive supercell factors:     5    5    5

superc: Internal auxiliary supercell:     5 x     5 x     5  =     125
superc: Number of atoms, orbitals, and projectors:   1000  13000  16000

outcell: Unit cell vectors (Ang):
        5.085258   -0.011595   -0.011595
       -0.011595    5.085258   -0.011595
       -0.011595   -0.011595    5.085258

outcell: Cell vector modules (Ang)   :    5.085285    5.085285    5.085285
outcell: Cell angles (23,13,12) (deg):     90.2610     90.2610     90.2610
outcell: Cell volume (Ang**3)        :    131.5020
New_DM. Step:     2
Re-using DM from previous geometry...
Re-using DM without extrapolation (not allowed)
Density Matrix sparsity pattern changed.

InitMesh: MESH =    50 x    50 x    50 =      125000
InitMesh: Mesh cutoff (required, used) =   260.000   267.196 Ry

siesta: iscf   Eharris(eV)      E_KS(eV)   FreeEng(eV)   dDmax  Ef(eV)
siesta:    1     -857.0660     -855.7189     -855.7214  0.0753 -5.9519
siesta:    2     -857.0841     -857.0449     -857.0464  0.0255 -5.9125
siesta:    3     -857.0582     -857.0159     -857.0175  0.0020 -5.9339
siesta:    4     -857.0580     -857.0393     -857.0408  0.0008 -5.9363

siesta: E_KS(eV) =             -857.0586

siesta: Atomic forces (eV/Ang):
----------------------------------------
   Tot    0.002458    0.002454    0.002443
----------------------------------------
   Max    3.448993
   Res    2.357736    sqrt( Sum f_i^2 / 3N )
----------------------------------------
   Max    3.448993    constrained

Stress-tensor-Voigt (kbar):     -321.44     -321.44     -321.44       90.53       90.53       90.53
(Free)E + p*V (eV/cell)     -830.6772
Target enthalpy (eV/cell)     -857.0602

siesta: Stress tensor (static) (eV/Ang**3):
        -0.200628    0.056501    0.056501
         0.056501   -0.200628    0.056501
         0.056501    0.056501   -0.200628

siesta: Pressure (static):        321.44474461  kBar

siesta: Stress tensor (total) (eV/Ang**3):
        -0.200628    0.056501    0.056501
         0.056501   -0.200628    0.056501
         0.056501    0.056501   -0.200628

siesta: Pressure (total):        321.44474461  kBar

mulliken: Mulliken Atomic and Orbital Populations:

Species: Si                  
Atom  Qatom  Qorb
               3s      3s      3py     3pz     3px     3py     3pz     3px     
               3Pdxy   3Pdyz   3Pdz2   3Pdxz   3Pdx2-y2
   1  4.202   0.281   0.784   0.052   0.052   0.052   0.714   0.714   0.714
              0.182   0.182   0.146   0.182   0.146
   2  3.870   0.651   0.582   0.084   0.084   0.084   0.603   0.603   0.603
              0.137   0.137   0.082   0.137   0.082
   3  3.934   0.528   0.637   0.028   0.117   0.028   0.664   0.614   0.664
              0.159   0.147   0.089   0.147   0.111
   4  4.043   0.408   0.701   0.080  -0.043   0.080   0.669   0.741   0.669
              0.160   0.167   0.140   0.167   0.103
   5  3.934   0.528   0.637   0.117   0.028   0.028   0.614   0.664   0.664
              0.147   0.147   0.105   0.159   0.094
   6  4.043   0.408   0.701  -0.043   0.080   0.080   0.741   0.669   0.669
              0.167   0.167   0.113   0.160   0.131
   7  3.934   0.528   0.637   0.028   0.028   0.117   0.664   0.664   0.614
              0.147   0.159   0.105   0.147   0.094
   8  4.043   0.408   0.701   0.080   0.080  -0.043   0.669   0.669   0.741
              0.167   0.160   0.113   0.167   0.131

mulliken: Qtot =       32.000

* Maximum dynamic memory allocated =   200 MB

siesta:                 ==============================
                            Begin CG move =      2
                        ==============================

outcoor: Atomic coordinates (Ang):                          
    0.04724663    0.04724659    0.04724653   1       1  Si
    1.37663471    1.37663471    1.37663453   1       2  Si
    2.74413180    2.74413177    0.01433568   1       3  Si
    4.05329649    4.05329650    1.38831932   1       4  Si
    2.74413180    0.01433576    2.74413180   1       5  Si
    4.05329659    1.38831932    4.05329658   1       6  Si
    0.01433575    2.74413181    2.74413180   1       7  Si
    1.38831931    4.05329660    4.05329661   1       8  Si
 Kpoints in:  196 . Kpoints trimmed:  172

siesta: k-grid: Number of k-points =   172
siesta: k-grid: Cutoff (effective) =    17.996 Ang
siesta: k-grid: Supercell and displacements
siesta: k-grid:    0   7   0      0.000
siesta: k-grid:    7   0   0      0.000
siesta: k-grid:    0   0   7      0.000
Naive supercell factors:     5    5    5

superc: Internal auxiliary supercell:     5 x     5 x     5  =     125
superc: Number of atoms, orbitals, and projectors:   1000  13000  16000

outcell: Unit cell vectors (Ang):
        5.141671   -0.030148   -0.030148
       -0.030148    5.141671   -0.030148
       -0.030148   -0.030148    5.141671

outcell: Cell vector modules (Ang)   :    5.141848    5.141848    5.141848
outcell: Cell angles (23,13,12) (deg):     90.6699     90.6699     90.6699
outcell: Cell volume (Ang**3)        :    135.9152
New_DM. Step:     3
Re-using DM from previous geometry...
Re-using DM without extrapolation (not allowed)
Density Matrix sparsity pattern changed.

InitMesh: MESH =    50 x    50 x    50 =      125000
InitMesh: Mesh cutoff (required, used) =   260.000   261.411 Ry

siesta: iscf   Eharris(eV)      E_KS(eV)   FreeEng(eV)   dDmax  Ef(eV)
siesta:    1     -859.2067     -857.2388     -857.2404  0.0935 -5.7943
siesta:    2     -859.2989     -859.1115     -859.1132  0.0571 -5.7306
siesta:    3     -859.1748     -859.0043     -859.0059  0.0098 -5.7668
siesta:    4     -859.1739     -859.1382     -859.1400  0.0014 -5.7705
siesta:    5     -859.1739     -859.1533     -859.1550  0.0008 -5.7707

siesta: E_KS(eV) =             -859.1700

siesta: Atomic forces (eV/Ang):
----------------------------------------
   Tot   -0.001018   -0.001023   -0.001003
----------------------------------------
   Max    2.480265
   Res    1.501784    sqrt( Sum f_i^2 / 3N )
----------------------------------------
   Max    2.480265    constrained

Stress-tensor-Voigt (kbar):     -238.51     -238.51     -238.51       42.95       42.95       42.95
(Free)E + p*V (eV/cell)     -838.9386
Target enthalpy (eV/cell)     -859.1718

siesta: Stress tensor (static) (eV/Ang**3):
        -0.148866    0.026805    0.026805
         0.026805   -0.148866    0.026805
         0.026805    0.026805   -0.148866

siesta: Pressure (static):        238.51242053  kBar

siesta: Stress tensor (total) (eV/Ang**3):
        -0.148866    0.026805    0.026805
         0.026805   -0.148866    0.026805
         0.026805    0.026805   -0.148866

siesta: Pressure (total):        238.51242053  kBar

mulliken: Mulliken Atomic and Orbital Populations:

Species: Si                  
Atom  Qatom  Qorb
               3s      3s      3py     3pz     3px     3py     3pz     3px     
               3Pdxy   3Pdyz   3Pdz2   3Pdxz   3Pdx2-y2
   1  4.081   0.384   0.714   0.051   0.051   0.051   0.695   0.695   0.695
              0.167   0.167   0.121   0.167   0.121
   2  3.915   0.649   0.576   0.114   0.114   0.114   0.595   0.595   0.595
              0.134   0.134   0.081   0.134   0.081
   3  3.971   0.538   0.627   0.068   0.125   0.068   0.647   0.614   0.647
              0.153   0.145   0.089   0.145   0.103
   4  4.031   0.448   0.676   0.100  -0.018   0.100   0.651   0.723   0.651
              0.154   0.162   0.125   0.162   0.098
   5  3.971   0.538   0.627   0.125   0.068   0.068   0.614   0.647   0.647
              0.145   0.145   0.100   0.153   0.093
   6  4.031   0.448   0.676  -0.018   0.100   0.100   0.723   0.651   0.651
              0.162   0.162   0.104   0.154   0.118
   7  3.971   0.538   0.627   0.068   0.068   0.125   0.647   0.647   0.614
              0.145   0.153   0.100   0.145   0.093
   8  4.031   0.448   0.676   0.100   0.100  -0.018   0.651   0.651   0.723
              0.162   0.154   0.104   0.162   0.118

mulliken: Qtot =       32.000

* Maximum dynamic memory allocated =   200 MB

siesta:                 ==============================
                            Begin CG move =      3
                        ==============================

outcoor: Atomic coordinates (Ang):                          
    0.09433644    0.09433636    0.09433624   1       1  Si
    1.39311227    1.39311226    1.39311189   1       2  Si
    2.76715179    2.76715174    0.03027941   1       3  Si
    4.02481417    4.02481418    1.41956590   1       4  Si
    2.76715179    0.03027956    2.76715179   1       5  Si
    4.02481436    1.41956591    4.02481434   1       6  Si
    0.03027954    2.76715182    2.76715179   1       7  Si
    1.41956589    4.02481440    4.02481440   1       8  Si
 Kpoints in:  196 . Kpoints trimmed:  172

siesta: k-grid: Number of k-points =   172
siesta: k-grid: Cutoff (effective) =    18.314 Ang
siesta: k-grid: Supercell and displacements
siesta: k-grid:    0   7   0      0.000
siesta: k-grid:    7   0   0      0.000
siesta: k-grid:    0   0   7      0.000
Naive supercell factors:     5    5    5

superc: Internal auxiliary supercell:     5 x     5 x     5  =     125
superc: Number of atoms, orbitals, and projectors:   1000  13000  16000

outcell: Unit cell vectors (Ang):
        5.231932   -0.059833   -0.059833
       -0.059833    5.231932   -0.059833
       -0.059833   -0.059833    5.231932

outcell: Cell vector modules (Ang)   :    5.232616    5.232616    5.232616
outcell: Cell angles (23,13,12) (deg):     91.3028     91.3028     91.3028
outcell: Cell volume (Ang**3)        :    143.1577
New_DM. Step:     4
Re-using DM from previous geometry...
Re-using DM without extrapolation (not allowed)
Density Matrix sparsity pattern changed.

InitMesh: MESH =    54 x    54 x    54 =      157464
InitMesh: Mesh cutoff (required, used) =   260.000   294.653 Ry

siesta: iscf   Eharris(eV)      E_KS(eV)   FreeEng(eV)   dDmax  Ef(eV)
siesta:    1     -861.0248     -858.3412     -858.3430  0.0874 -5.6892
siesta:    2     -861.4624     -860.5706     -860.5711  0.1101 -5.6557
siesta:    3     -860.8742     -860.2805     -860.2809  0.0304 -5.6671
siesta:    4     -860.8714     -860.7657     -860.7660  0.0031 -5.6698
siesta:    5     -860.8714     -860.7990     -860.7993  0.0019 -5.6694
siesta:    6     -860.8714     -860.8558     -860.8562  0.0005 -5.6686

siesta: E_KS(eV) =             -860.8653

siesta: Atomic forces (eV/Ang):
----------------------------------------
   Tot    0.000295    0.000291    0.000317
----------------------------------------
   Max    1.563319
   Res    0.775306    sqrt( Sum f_i^2 / 3N )
----------------------------------------
   Max    1.563319    constrained

Stress-tensor-Voigt (kbar):     -144.50     -144.50     -144.50      -12.81      -12.81      -12.81
(Free)E + p*V (eV/cell)     -847.9545
Target enthalpy (eV/cell)     -860.8656

siesta: Stress tensor (static) (eV/Ang**3):
        -0.090188   -0.007998   -0.007998
        -0.007998   -0.090188   -0.007998
        -0.007998   -0.007998   -0.090188

siesta: Pressure (static):        144.49810431  kBar

siesta: Stress tensor (total) (eV/Ang**3):
        -0.090188   -0.007998   -0.007998
        -0.007998   -0.090188   -0.007998
        -0.007998   -0.007998   -0.090188

siesta: Pressure (total):        144.49810431  kBar

mulliken: Mulliken Atomic and Orbital Populations:

Species: Si                  
Atom  Qatom  Qorb
               3s      3s      3py     3pz     3px     3py     3pz     3px     
               3Pdxy   3Pdyz   3Pdz2   3Pdxz   3Pdx2-y2
   1  3.993   0.542   0.623   0.112   0.112   0.112   0.625   0.625   0.625
              0.144   0.144   0.093   0.144   0.093
   2  3.966   0.637   0.575   0.151   0.151   0.151   0.581   0.581   0.581
              0.133   0.133   0.080   0.133   0.080
   3  4.001   0.545   0.620   0.124   0.118   0.124   0.616   0.622   0.616
              0.144   0.143   0.092   0.143   0.092
   4  4.012   0.511   0.639   0.133   0.054   0.133   0.618   0.667   0.618
              0.145   0.150   0.104   0.150   0.090
   5  4.001   0.545   0.620   0.118   0.124   0.124   0.622   0.616   0.616
              0.143   0.143   0.092   0.144   0.092
   6  4.012   0.511   0.639   0.054   0.133   0.133   0.667   0.618   0.618
              0.150   0.150   0.093   0.145   0.100
   7  4.001   0.545   0.620   0.124   0.124   0.118   0.616   0.616   0.622
              0.143   0.144   0.092   0.143   0.092
   8  4.012   0.511   0.639   0.133   0.133   0.054   0.618   0.618   0.667
              0.150   0.145   0.093   0.150   0.100

mulliken: Qtot =       32.000

* Maximum dynamic memory allocated =   209 MB

siesta:                 ==============================
                            Begin CG move =      4
                        ==============================

outcoor: Atomic coordinates (Ang):                          
    0.15083528    0.15083515    0.15083495   1       1  Si
    1.41275296    1.41275295    1.41275234   1       2  Si
    2.79346338    2.79346331    0.05150791   1       3  Si
    3.98827320    3.98827321    1.46088632   1       4  Si
    2.79346338    0.05150815    2.79346339   1       5  Si
    3.98827350    1.46088632    3.98827347   1       6  Si
    0.05150812    2.79346343    2.79346338   1       7  Si
    1.46088630    3.98827356    3.98827356   1       8  Si
 Kpoints in:  108 . Kpoints trimmed:  108

siesta: k-grid: Number of k-points =   108
siesta: k-grid: Cutoff (effective) =    16.022 Ang
siesta: k-grid: Supercell and displacements
siesta: k-grid:    0   6   0      0.500
siesta: k-grid:    6   0   0      0.500
siesta: k-grid:    0   0   6      0.500
Naive supercell factors:     5    5    5

superc: Internal auxiliary supercell:     5 x     5 x     5  =     125
superc: Number of atoms, orbitals, and projectors:   1000  13000  16000

outcell: Unit cell vectors (Ang):
        5.338826   -0.094987   -0.094987
       -0.094987    5.338826   -0.094987
       -0.094987   -0.094987    5.338826

outcell: Cell vector modules (Ang)   :    5.340516    5.340516    5.340516
outcell: Cell angles (23,13,12) (deg):     92.0198     92.0198     92.0198
outcell: Cell volume (Ang**3)        :    152.0267
New_DM. Step:     5
Re-using DM from previous geometry...
Re-using DM without extrapolation (not allowed)
Density Matrix sparsity pattern changed.

InitMesh: MESH =    54 x    54 x    54 =      157464
InitMesh: Mesh cutoff (required, used) =   260.000   283.297 Ry

siesta: iscf   Eharris(eV)      E_KS(eV)   FreeEng(eV)   dDmax  Ef(eV)
siesta:    1     -861.2053     -858.9035     -858.9039  0.0760 -5.6547
siesta:    2     -862.2707     -860.1646     -860.1650  0.1170 -5.6732
siesta:    3     -860.8573     -860.0254     -860.0267  0.0377 -5.6704
siesta:    4     -860.8566     -860.6274     -860.6281  0.0047 -5.6751
siesta:    5     -860.8563     -860.7249     -860.7255  0.0024 -5.6746
siesta:    6     -860.8562     -860.8081     -860.8087  0.0007 -5.6735

siesta: E_KS(eV) =             -860.8295

siesta: Atomic forces (eV/Ang):
----------------------------------------
   Tot   -0.000657   -0.000648   -0.000644
----------------------------------------
   Max    1.687951
   Res    1.186376    sqrt( Sum f_i^2 / 3N )
----------------------------------------
   Max    1.687951    constrained

Stress-tensor-Voigt (kbar):      -78.43      -78.43      -78.43      -58.16      -58.16      -58.16
(Free)E + p*V (eV/cell)     -853.3887
Target enthalpy (eV/cell)     -860.8302

siesta: Stress tensor (static) (eV/Ang**3):
        -0.048949   -0.036297   -0.036297
        -0.036297   -0.048949   -0.036297
        -0.036297   -0.036297   -0.048949

siesta: Pressure (static):         78.42513180  kBar

siesta: Stress tensor (total) (eV/Ang**3):
        -0.048949   -0.036297   -0.036297
        -0.036297   -0.048949   -0.036297
        -0.036297   -0.036297   -0.048949

siesta: Pressure (total):         78.42513180  kBar

mulliken: Mulliken Atomic and Orbital Populations:

Species: Si                  
Atom  Qatom  Qorb
               3s      3s      3py     3pz     3px     3py     3pz     3px     
               3Pdxy   3Pdyz   3Pdz2   3Pdxz   3Pdx2-y2
   1  4.005   0.703   0.545   0.233   0.233   0.233   0.518   0.518   0.518
              0.120   0.120   0.072   0.120   0.072
   2  4.000   0.604   0.593   0.174   0.174   0.174   0.572   0.572   0.572
              0.134   0.134   0.082   0.134   0.082
   3  4.002   0.537   0.625   0.180   0.084   0.180   0.578   0.639   0.578
              0.136   0.142   0.100   0.142   0.081
   4  3.996   0.574   0.606   0.170   0.148   0.170   0.580   0.593   0.580
              0.134   0.135   0.089   0.135   0.084
   5  4.002   0.537   0.625   0.084   0.180   0.180   0.639   0.578   0.578
              0.142   0.142   0.086   0.136   0.095
   6  3.996   0.574   0.606   0.148   0.170   0.170   0.593   0.580   0.580
              0.135   0.135   0.085   0.134   0.087
   7  4.002   0.537   0.625   0.180   0.180   0.084   0.578   0.578   0.639
              0.142   0.136   0.086   0.142   0.095
   8  3.996   0.574   0.606   0.170   0.170   0.148   0.580   0.580   0.593
              0.135   0.134   0.085   0.135   0.087

mulliken: Qtot =       32.000

* Maximum dynamic memory allocated =   216 MB

siesta:                 ==============================
                            Begin CG move =      5
                        ==============================

outcoor: Atomic coordinates (Ang):                          
    0.12676665    0.12676654    0.12676637   1       1  Si
    1.40440288    1.40440287    1.40440236   1       2  Si
    2.78242557    2.78242551    0.04219013   1       3  Si
    4.00414923    4.00414925    1.44278300   1       4  Si
    2.78242557    0.04219033    2.78242558   1       5  Si
    4.00414949    1.44278300    4.00414947   1       6  Si
    0.04219031    2.78242561    2.78242557   1       7  Si
    1.44278299    4.00414954    4.00414954   1       8  Si
 Kpoints in:  108 . Kpoints trimmed:  108

siesta: k-grid: Number of k-points =   108
siesta: k-grid: Cutoff (effective) =    15.884 Ang
siesta: k-grid: Supercell and displacements
siesta: k-grid:    0   6   0      0.500
siesta: k-grid:    6   0   0      0.500
siesta: k-grid:    0   0   6      0.500
Naive supercell factors:     5    5    5

superc: Internal auxiliary supercell:     5 x     5 x     5  =     125
superc: Number of atoms, orbitals, and projectors:   1000  13000  16000

outcell: Unit cell vectors (Ang):
        5.293472   -0.080072   -0.080072
       -0.080072    5.293472   -0.080072
       -0.080072   -0.080072    5.293472

outcell: Cell vector modules (Ang)   :    5.294683    5.294683    5.294683
outcell: Cell angles (23,13,12) (deg):     91.7197     91.7197     91.7197
outcell: Cell volume (Ang**3)        :    148.2247
New_DM. Step:     6
Re-using DM from previous geometry...
Re-using DM without extrapolation (not allowed)
Density Matrix sparsity pattern changed.

InitMesh: MESH =    54 x    54 x    54 =      157464
InitMesh: Mesh cutoff (required, used) =   260.000   288.016 Ry

siesta: iscf   Eharris(eV)      E_KS(eV)   FreeEng(eV)   dDmax  Ef(eV)
siesta:    1     -861.1464     -861.6375     -861.6382  0.0284 -5.7431
siesta:    2     -861.3116     -860.9738     -860.9738  0.0615 -5.7334
siesta:    3     -861.0878     -861.1976     -861.1977  0.0132 -5.7329
siesta:    4     -861.0874     -861.0587     -861.0587  0.0021 -5.7310
siesta:    5     -861.0874     -861.0656     -861.0657  0.0014 -5.7311
siesta:    6     -861.0874     -861.0814     -861.0814  0.0002 -5.7314

siesta: E_KS(eV) =             -861.0843

siesta: Atomic forces (eV/Ang):
----------------------------------------
   Tot    0.002434    0.002435    0.002456
----------------------------------------
   Max    1.035240
   Res    0.895776    sqrt( Sum f_i^2 / 3N )
----------------------------------------
   Max    1.035240    constrained

Stress-tensor-Voigt (kbar):     -101.57     -101.57     -101.57      -40.90      -40.90      -40.90
(Free)E + p*V (eV/cell)     -851.6877
Target enthalpy (eV/cell)     -861.0844

siesta: Stress tensor (static) (eV/Ang**3):
        -0.063395   -0.025529   -0.025529
        -0.025529   -0.063395   -0.025529
        -0.025529   -0.025529   -0.063395

siesta: Pressure (static):        101.57082902  kBar

siesta: Stress tensor (total) (eV/Ang**3):
        -0.063395   -0.025529   -0.025529
        -0.025529   -0.063395   -0.025529
        -0.025529   -0.025529   -0.063395

siesta: Pressure (total):        101.57082902  kBar

mulliken: Mulliken Atomic and Orbital Populations:

Species: Si                  
Atom  Qatom  Qorb
               3s      3s      3py     3pz     3px     3py     3pz     3px     
               3Pdxy   3Pdyz   3Pdz2   3Pdxz   3Pdx2-y2
   1  3.986   0.637   0.576   0.176   0.176   0.176   0.565   0.565   0.565
              0.130   0.130   0.080   0.130   0.080
   2  3.988   0.622   0.582   0.167   0.167   0.167   0.574   0.574   0.574
              0.133   0.133   0.081   0.133   0.081
   3  4.005   0.543   0.622   0.158   0.101   0.158   0.594   0.631   0.594
              0.139   0.143   0.095   0.143   0.085
   4  4.003   0.551   0.617   0.155   0.110   0.155   0.596   0.623   0.596
              0.138   0.141   0.094   0.141   0.086
   5  4.005   0.543   0.622   0.101   0.158   0.158   0.631   0.594   0.594
              0.143   0.143   0.088   0.139   0.093
   6  4.003   0.551   0.617   0.110   0.155   0.155   0.623   0.596   0.596
              0.141   0.141   0.088   0.138   0.092
   7  4.005   0.543   0.622   0.158   0.158   0.101   0.594   0.594   0.631
              0.143   0.139   0.088   0.143   0.093
   8  4.003   0.551   0.617   0.155   0.155   0.110   0.596   0.596   0.623
              0.141   0.138   0.088   0.141   0.092

mulliken: Qtot =       32.000

cgvc: Finished line minimization    1.  Mean atomic displacement =    0.1677

* Maximum dynamic memory allocated =   216 MB

siesta:                 ==============================
                            Begin CG move =      6
                        ==============================

outcoor: Atomic coordinates (Ang):                          
    0.11355561    0.11355555    0.11355510   1       1  Si
    1.48049260    1.48049265    1.48049264   1       2  Si
    2.80547962    2.80547956    0.12114196   1       3  Si
    4.13654474    4.13654480    1.48024691   1       4  Si
    2.80547974    0.12114266    2.80548004   1       5  Si
    4.13654472    1.48024658    4.13654494   1       6  Si
    0.12114264    2.80547976    2.80548019   1       7  Si
    1.48024653    4.13654467    4.13654508   1       8  Si
 Kpoints in:  108 . Kpoints trimmed:  108

siesta: k-grid: Number of k-points =   108
siesta: k-grid: Cutoff (effective) =    16.203 Ang
siesta: k-grid: Supercell and displacements
siesta: k-grid:    0   6   0      0.500
siesta: k-grid:    6   0   0      0.500
siesta: k-grid:    0   0   6      0.500
Naive supercell factors:     5    5    5

superc: Internal auxiliary supercell:     5 x     5 x     5  =     125
superc: Number of atoms, orbitals, and projectors:   1000  13000  16000

outcell: Unit cell vectors (Ang):
        5.400366   -0.057693   -0.057693
       -0.057693    5.400366   -0.057693
       -0.057693   -0.057693    5.400366

outcell: Cell vector modules (Ang)   :    5.400982    5.400982    5.400982
outcell: Cell angles (23,13,12) (deg):     91.2175     91.2175     91.2175
outcell: Cell volume (Ang**3)        :    157.4417
New_DM. Step:     7
Re-using DM from previous geometry...
Re-using DM without extrapolation (not allowed)
Density Matrix sparsity pattern changed.

InitMesh: MESH =    54 x    54 x    54 =      157464
InitMesh: Mesh cutoff (required, used) =   260.000   276.531 Ry

siesta: iscf   Eharris(eV)      E_KS(eV)   FreeEng(eV)   dDmax  Ef(eV)
siesta:    1     -861.8978     -859.6691     -859.6691  0.0688 -5.3963
siesta:    2     -862.1114     -861.6759     -861.6759  0.0902 -5.3925
siesta:    3     -861.8223     -861.4848     -861.4848  0.0124 -5.4000
siesta:    4     -861.8211     -861.7659     -861.7659  0.0027 -5.4025
siesta:    5     -861.8210     -861.7867     -861.7867  0.0015 -5.4021
siesta:    6     -861.8210     -861.8067     -861.8067  0.0003 -5.4015

siesta: E_KS(eV) =             -861.8115

siesta: Atomic forces (eV/Ang):
----------------------------------------
   Tot   -0.000116   -0.000113   -0.000128
----------------------------------------
   Max    0.522426
   Res    0.319496    sqrt( Sum f_i^2 / 3N )
----------------------------------------
   Max    0.522426    constrained

Stress-tensor-Voigt (kbar):      -22.68      -22.68      -22.68      -12.06      -12.06      -12.06
(Free)E + p*V (eV/cell)     -859.5833
Target enthalpy (eV/cell)     -861.8116

siesta: Stress tensor (static) (eV/Ang**3):
        -0.014153   -0.007524   -0.007524
        -0.007524   -0.014153   -0.007524
        -0.007524   -0.007524   -0.014153

siesta: Pressure (static):         22.67533524  kBar

siesta: Stress tensor (total) (eV/Ang**3):
        -0.014153   -0.007524   -0.007524
        -0.007524   -0.014153   -0.007524
        -0.007524   -0.007524   -0.014153

siesta: Pressure (total):         22.67533524  kBar

mulliken: Mulliken Atomic and Orbital Populations:

Species: Si                  
Atom  Qatom  Qorb
               3s      3s      3py     3pz     3px     3py     3pz     3px     
               3Pdxy   3Pdyz   3Pdz2   3Pdxz   3Pdx2-y2
   1  3.993   0.671   0.555   0.224   0.224   0.224   0.527   0.527   0.527
              0.122   0.122   0.073   0.122   0.073
   2  4.004   0.605   0.587   0.194   0.194   0.194   0.559   0.559   0.559
              0.131   0.131   0.080   0.131   0.080
   3  4.003   0.602   0.589   0.203   0.172   0.203   0.553   0.573   0.553
              0.129   0.132   0.084   0.132   0.078
   4  3.998   0.624   0.578   0.201   0.205   0.201   0.551   0.547   0.551
              0.128   0.127   0.078   0.127   0.079
   5  4.003   0.602   0.589   0.172   0.203   0.203   0.573   0.553   0.553
              0.132   0.132   0.080   0.129   0.082
   6  3.998   0.624   0.578   0.205   0.201   0.201   0.547   0.551   0.551
              0.127   0.127   0.079   0.128   0.078
   7  4.003   0.602   0.589   0.203   0.203   0.172   0.553   0.553   0.573
              0.132   0.129   0.080   0.132   0.082
   8  3.998   0.624   0.578   0.201   0.201   0.205   0.551   0.551   0.547
              0.127   0.128   0.079   0.127   0.078

mulliken: Qtot =       32.000

* Maximum dynamic memory allocated =   216 MB

siesta:                 ==============================
                            Begin CG move =      7
                        ==============================

outcoor: Atomic coordinates (Ang):                          
    0.09937147    0.09937146    0.09937072   1       1  Si
    1.55856801    1.55856812    1.55856863   1       2  Si
    2.82673536    2.82673528    0.20136128   1       3  Si
    4.26994525    4.26994537    1.51702349   1       4  Si
    2.82673560    0.20136251    2.82673621   1       5  Si
    4.26994495    1.51702281    4.26994542   1       6  Si
    0.20136248    2.82673560    2.82673652   1       7  Si
    1.51702273    4.26994480    4.26994562   1       8  Si
 Kpoints in:  108 . Kpoints trimmed:  108

siesta: k-grid: Number of k-points =   108
siesta: k-grid: Cutoff (effective) =    16.522 Ang
siesta: k-grid: Supercell and displacements
siesta: k-grid:    0   6   0      0.500
siesta: k-grid:    6   0   0      0.500
siesta: k-grid:    0   0   6      0.500
Naive supercell factors:     5    5    5

superc: Internal auxiliary supercell:     5 x     5 x     5  =     125
superc: Number of atoms, orbitals, and projectors:   1000  13000  16000

outcell: Unit cell vectors (Ang):
        5.507260   -0.035315   -0.035315
       -0.035315    5.507260   -0.035315
       -0.035315   -0.035315    5.507260

outcell: Cell vector modules (Ang)   :    5.507486    5.507486    5.507486
outcell: Cell angles (23,13,12) (deg):     90.7324     90.7324     90.7324
outcell: Cell volume (Ang**3)        :    167.0140
New_DM. Step:     8
Re-using DM from previous geometry...
Re-using DM without extrapolation (not allowed)
Density Matrix sparsity pattern changed.

InitMesh: MESH =    54 x    54 x    54 =      157464
InitMesh: Mesh cutoff (required, used) =   260.000   265.782 Ry

siesta: iscf   Eharris(eV)      E_KS(eV)   FreeEng(eV)   dDmax  Ef(eV)
siesta:    1     -861.4681     -859.8563     -859.8563  0.0541 -5.1697
siesta:    2     -861.7338     -861.2045     -861.2046  0.1061 -5.2466
siesta:    3     -861.3780     -860.9922     -860.9924  0.0144 -5.2021
siesta:    4     -861.3775     -861.3108     -861.3109  0.0038 -5.2043
siesta:    5     -861.3773     -861.3384     -861.3385  0.0020 -5.2040
siesta:    6     -861.3773     -861.3603     -861.3605  0.0005 -5.2035

siesta: E_KS(eV) =             -861.3665

siesta: Atomic forces (eV/Ang):
----------------------------------------
   Tot    0.001041    0.001041    0.001049
----------------------------------------
   Max    1.376306
   Res    0.961893    sqrt( Sum f_i^2 / 3N )
----------------------------------------
   Max    1.376306    constrained

Stress-tensor-Voigt (kbar):       24.17       24.17       24.17        7.92        7.92        7.92
(Free)E + p*V (eV/cell)     -863.8865
Target enthalpy (eV/cell)     -861.3667

siesta: Stress tensor (static) (eV/Ang**3):
         0.015087    0.004946    0.004946
         0.004946    0.015087    0.004946
         0.004946    0.004946    0.015087

siesta: Pressure (static):        -24.17266295  kBar

siesta: Stress tensor (total) (eV/Ang**3):
         0.015087    0.004946    0.004946
         0.004946    0.015087    0.004946
         0.004946    0.004946    0.015087

siesta: Pressure (total):        -24.17266295  kBar

mulliken: Mulliken Atomic and Orbital Populations:

Species: Si                  
Atom  Qatom  Qorb
               3s      3s      3py     3pz     3px     3py     3pz     3px     
               3Pdxy   3Pdyz   3Pdz2   3Pdxz   3Pdx2-y2
   1  4.000   0.681   0.553   0.262   0.262   0.262   0.497   0.497   0.497
              0.117   0.117   0.070   0.117   0.070
   2  4.029   0.562   0.610   0.216   0.216   0.216   0.549   0.549   0.549
              0.131   0.131   0.084   0.131   0.084
   3  3.996   0.647   0.568   0.246   0.233   0.246   0.513   0.521   0.513
              0.120   0.121   0.075   0.121   0.072
   4  3.995   0.688   0.548   0.249   0.294   0.249   0.504   0.471   0.504
              0.121   0.114   0.066   0.114   0.072
   5  3.996   0.647   0.568   0.233   0.246   0.246   0.521   0.513   0.513
              0.121   0.121   0.073   0.120   0.075
   6  3.995   0.688   0.548   0.294   0.249   0.249   0.471   0.504   0.504
              0.114   0.114   0.071   0.121   0.068
   7  3.996   0.647   0.568   0.246   0.246   0.233   0.513   0.513   0.521
              0.121   0.120   0.073   0.121   0.075
   8  3.995   0.688   0.548   0.249   0.249   0.294   0.504   0.504   0.471
              0.114   0.121   0.071   0.114   0.068

mulliken: Qtot =       32.000

* Maximum dynamic memory allocated =   216 MB

siesta:                 ==============================
                            Begin CG move =      8
                        ==============================

outcoor: Atomic coordinates (Ang):                          
    0.11228224    0.11228218    0.11228171   1       1  Si
    1.48764343    1.48764349    1.48764353   1       2  Si
    2.80752473    2.80752466    0.12852163   1       3  Si
    4.14886310    4.14886317    1.48368344   1       4  Si
    2.80752485    0.12852238    2.80752519   1       5  Si
    4.14886306    1.48368308    4.14886330   1       6  Si
    0.12852236    2.80752487    2.80752535   1       7  Si
    1.48368303    4.14886300    4.14886344   1       8  Si
 Kpoints in:  108 . Kpoints trimmed:  108

siesta: k-grid: Number of k-points =   108
siesta: k-grid: Cutoff (effective) =    16.233 Ang
siesta: k-grid: Supercell and displacements
siesta: k-grid:    0   6   0      0.500
siesta: k-grid:    6   0   0      0.500
siesta: k-grid:    0   0   6      0.500
Naive supercell factors:     5    5    5

superc: Internal auxiliary supercell:     5 x     5 x     5  =     125
superc: Number of atoms, orbitals, and projectors:   1000  13000  16000

outcell: Unit cell vectors (Ang):
        5.410270   -0.055620   -0.055620
       -0.055620    5.410270   -0.055620
       -0.055620   -0.055620    5.410271

outcell: Cell vector modules (Ang)   :    5.410842    5.410842    5.410842
outcell: Cell angles (23,13,12) (deg):     91.1718     91.1718     91.1718
outcell: Cell volume (Ang**3)        :    158.3136
New_DM. Step:     9
Re-using DM from previous geometry...
Re-using DM without extrapolation (not allowed)
Density Matrix sparsity pattern changed.

InitMesh: MESH =    54 x    54 x    54 =      157464
InitMesh: Mesh cutoff (required, used) =   260.000   275.506 Ry

siesta: iscf   Eharris(eV)      E_KS(eV)   FreeEng(eV)   dDmax  Ef(eV)
siesta:    1     -861.8903     -863.0752     -863.0754  0.0466 -5.3819
siesta:    2     -862.0710     -861.7024     -861.7024  0.0799 -5.3862
siesta:    3     -861.8267     -861.9876     -861.9876  0.0121 -5.3754
siesta:    4     -861.8258     -861.7865     -861.7865  0.0034 -5.3720
siesta:    5     -861.8257     -861.7949     -861.7949  0.0021 -5.3723
siesta:    6     -861.8257     -861.8178     -861.8178  0.0004 -5.3728

siesta: E_KS(eV) =             -861.8230

siesta: Atomic forces (eV/Ang):
----------------------------------------
   Tot    0.000027    0.000034    0.000027
----------------------------------------
   Max    0.612239
   Res    0.351687    sqrt( Sum f_i^2 / 3N )
----------------------------------------
   Max    0.612239    constrained

Stress-tensor-Voigt (kbar):      -17.07      -17.07      -17.07       -9.94       -9.94       -9.94
(Free)E + p*V (eV/cell)     -860.1361
Target enthalpy (eV/cell)     -861.8230

siesta: Stress tensor (static) (eV/Ang**3):
        -0.010655   -0.006202   -0.006202
        -0.006202   -0.010655   -0.006202
        -0.006202   -0.006202   -0.010655

siesta: Pressure (static):         17.07153199  kBar

siesta: Stress tensor (total) (eV/Ang**3):
        -0.010655   -0.006202   -0.006202
        -0.006202   -0.010655   -0.006202
        -0.006202   -0.006202   -0.010655

siesta: Pressure (total):         17.07153199  kBar

mulliken: Mulliken Atomic and Orbital Populations:

Species: Si                  
Atom  Qatom  Qorb
               3s      3s      3py     3pz     3px     3py     3pz     3px     
               3Pdxy   3Pdyz   3Pdz2   3Pdxz   3Pdx2-y2
   1  3.995   0.673   0.554   0.229   0.229   0.229   0.524   0.524   0.524
              0.121   0.121   0.073   0.121   0.073
   2  4.006   0.602   0.589   0.196   0.196   0.196   0.558   0.558   0.558
              0.130   0.130   0.080   0.130   0.080
   3  4.002   0.607   0.586   0.207   0.178   0.207   0.549   0.568   0.549
              0.128   0.131   0.083   0.131   0.078
   4  3.998   0.631   0.575   0.206   0.213   0.206   0.546   0.540   0.546
              0.128   0.126   0.077   0.126   0.078
   5  4.002   0.607   0.586   0.178   0.207   0.207   0.568   0.549   0.549
              0.131   0.131   0.079   0.128   0.081
   6  3.998   0.631   0.575   0.213   0.206   0.206   0.540   0.546   0.546
              0.126   0.126   0.078   0.128   0.077
   7  4.002   0.607   0.586   0.207   0.207   0.178   0.549   0.549   0.568
              0.131   0.128   0.079   0.131   0.081
   8  3.998   0.631   0.575   0.206   0.206   0.213   0.546   0.546   0.540
              0.126   0.128   0.078   0.126   0.077

mulliken: Qtot =       32.000

cgvc: Finished line minimization    2.  Mean atomic displacement =    0.1833

* Maximum dynamic memory allocated =   216 MB

siesta:                 ==============================
                            Begin CG move =      9
                        ==============================

outcoor: Atomic coordinates (Ang):                          
    0.13878642    0.13878642    0.13878778   1       1  Si
    1.44525520    1.44525549    1.44525624   1       2  Si
    2.90722466    2.90722466    0.15054314   1       3  Si
    4.28541301    4.28541295    1.47420058   1       4  Si
    2.90722322    0.15054281    2.90722353   1       5  Si
    4.28541259    1.47420054    4.28541247   1       6  Si
    0.15054253    2.90722363    2.90722346   1       7  Si
    1.47420061    4.28541280    4.28541243   1       8  Si
 Kpoints in:  108 . Kpoints trimmed:  108

siesta: k-grid: Number of k-points =   108
siesta: k-grid: Cutoff (effective) =    16.465 Ang
siesta: k-grid: Supercell and displacements
siesta: k-grid:    0   6   0      0.500
siesta: k-grid:    6   0   0      0.500
siesta: k-grid:    0   0   6      0.500
Naive supercell factors:     5    5    5

superc: Internal auxiliary supercell:     5 x     5 x     5  =     125
superc: Number of atoms, orbitals, and projectors:   1000  13000  16000

outcell: Unit cell vectors (Ang):
        5.488346   -0.022077   -0.022077
       -0.022077    5.488346   -0.022077
       -0.022077   -0.022077    5.488347

outcell: Cell vector modules (Ang)   :    5.488435    5.488435    5.488435
outcell: Cell angles (23,13,12) (deg):     90.4600     90.4600     90.4600
outcell: Cell volume (Ang**3)        :    165.3116
New_DM. Step:    10
Re-using DM from previous geometry...
Re-using DM without extrapolation (not allowed)
Density Matrix sparsity pattern changed.

InitMesh: MESH =    54 x    54 x    54 =      157464
InitMesh: Mesh cutoff (required, used) =   260.000   267.577 Ry

siesta: iscf   Eharris(eV)      E_KS(eV)   FreeEng(eV)   dDmax  Ef(eV)
siesta:    1     -862.0165     -860.4378     -860.4378  0.0437 -5.2841
siesta:    2     -863.0342     -861.0943     -861.0943  0.2025 -5.3631
siesta:    3     -861.7131     -861.0466     -861.0466  0.0355 -5.3118
siesta:    4     -861.7131     -861.5348     -861.5348  0.0066 -5.3140
siesta:    5     -861.7127     -861.6195     -861.6195  0.0019 -5.3133
siesta:    6     -861.7127     -861.6643     -861.6643  0.0008 -5.3129

siesta: E_KS(eV) =             -861.6949

siesta: Atomic forces (eV/Ang):
----------------------------------------
   Tot    0.000882    0.000884    0.000872
----------------------------------------
   Max    1.211867
   Res    0.604210    sqrt( Sum f_i^2 / 3N )
----------------------------------------
   Max    1.211867    constrained

Stress-tensor-Voigt (kbar):       18.46       18.46       18.46      -13.22      -13.22      -13.22
(Free)E + p*V (eV/cell)     -863.5996
Target enthalpy (eV/cell)     -861.6949

siesta: Stress tensor (static) (eV/Ang**3):
         0.011522   -0.008252   -0.008252
        -0.008252    0.011522   -0.008252
        -0.008252   -0.008252    0.011522

siesta: Pressure (static):        -18.46004087  kBar

siesta: Stress tensor (total) (eV/Ang**3):
         0.011522   -0.008252   -0.008252
        -0.008252    0.011522   -0.008252
        -0.008252   -0.008252    0.011522

siesta: Pressure (total):        -18.46004087  kBar

mulliken: Mulliken Atomic and Orbital Populations:

Species: Si                  
Atom  Qatom  Qorb
               3s      3s      3py     3pz     3px     3py     3pz     3px     
               3Pdxy   3Pdyz   3Pdz2   3Pdxz   3Pdx2-y2
   1  4.017   0.561   0.611   0.198   0.198   0.198   0.561   0.561   0.561
              0.133   0.133   0.084   0.133   0.084
   2  4.001   0.672   0.554   0.252   0.252   0.252   0.507   0.507   0.507
              0.118   0.118   0.071   0.118   0.071
   3  3.997   0.682   0.550   0.240   0.290   0.240   0.513   0.478   0.513
              0.122   0.115   0.066   0.115   0.074
   4  3.997   0.645   0.568   0.238   0.227   0.238   0.520   0.528   0.520
              0.121   0.122   0.075   0.122   0.073
   5  3.997   0.682   0.550   0.290   0.240   0.240   0.478   0.513   0.513
              0.115   0.115   0.072   0.122   0.068
   6  3.997   0.645   0.568   0.227   0.238   0.238   0.528   0.520   0.520
              0.122   0.122   0.073   0.121   0.074
   7  3.997   0.682   0.550   0.240   0.240   0.290   0.513   0.513   0.478
              0.115   0.122   0.072   0.115   0.068
   8  3.997   0.645   0.568   0.238   0.238   0.227   0.520   0.520   0.528
              0.122   0.121   0.073   0.122   0.074

mulliken: Qtot =       32.000

* Maximum dynamic memory allocated =   216 MB

siesta:                 ==============================
                            Begin CG move =     10
                        ==============================

outcoor: Atomic coordinates (Ang):                          
    0.12263991    0.12263988    0.12264013   1       1  Si
    1.47136973    1.47136988    1.47137020   1       2  Si
    2.84687685    2.84687681    0.13718741   1       3  Si
    4.20292515    4.20292517    1.48009360   1       4  Si
    2.84687636    0.13718775    2.84687669   1       5  Si
    4.20292496    1.48009336    4.20292506   1       6  Si
    0.13718762    2.84687654    2.84687676   1       7  Si
    1.48009336    4.20292501    4.20292513   1       8  Si
 Kpoints in:  108 . Kpoints trimmed:  108

siesta: k-grid: Number of k-points =   108
siesta: k-grid: Cutoff (effective) =    16.325 Ang
siesta: k-grid: Supercell and displacements
siesta: k-grid:    0   6   0      0.500
siesta: k-grid:    6   0   0      0.500
siesta: k-grid:    0   0   6      0.500
Naive supercell factors:     5    5    5

superc: Internal auxiliary supercell:     5 x     5 x     5  =     125
superc: Number of atoms, orbitals, and projectors:   1000  13000  16000

outcell: Unit cell vectors (Ang):
        5.441222   -0.042322   -0.042322
       -0.042322    5.441222   -0.042322
       -0.042322   -0.042322    5.441223

outcell: Cell vector modules (Ang)   :    5.441552    5.441552    5.441552
outcell: Cell angles (23,13,12) (deg):     90.8878     90.8878     90.8878
outcell: Cell volume (Ang**3)        :    161.0683
New_DM. Step:    11
Re-using DM from previous geometry...
Re-using DM without extrapolation (not allowed)
Density Matrix sparsity pattern changed.

InitMesh: MESH =    54 x    54 x    54 =      157464
InitMesh: Mesh cutoff (required, used) =   260.000   272.305 Ry

siesta: iscf   Eharris(eV)      E_KS(eV)   FreeEng(eV)   dDmax  Ef(eV)
siesta:    1     -862.0367     -862.4769     -862.4769  0.0254 -5.3597
siesta:    2     -862.3603     -861.7277     -861.7277  0.0968 -5.3623
siesta:    3     -861.9355     -862.0579     -862.0579  0.0186 -5.3461
siesta:    4     -861.9353     -861.8927     -861.8927  0.0019 -5.3418
siesta:    5     -861.9352     -861.9018     -861.9018  0.0013 -5.3423
siesta:    6     -861.9352     -861.9245     -861.9245  0.0003 -5.3430

siesta: E_KS(eV) =             -861.9307

siesta: Atomic forces (eV/Ang):
----------------------------------------
   Tot    0.000769    0.000777    0.000775
----------------------------------------
   Max    0.115630
   Res    0.059671    sqrt( Sum f_i^2 / 3N )
----------------------------------------
   Max    0.115630    constrained

Stress-tensor-Voigt (kbar):       -0.23       -0.23       -0.23      -11.64      -11.64      -11.64
(Free)E + p*V (eV/cell)     -861.9074
Target enthalpy (eV/cell)     -861.9307

siesta: Stress tensor (static) (eV/Ang**3):
        -0.000144   -0.007264   -0.007264
        -0.007264   -0.000144   -0.007264
        -0.007264   -0.007264   -0.000144

siesta: Pressure (static):          0.23132822  kBar

siesta: Stress tensor (total) (eV/Ang**3):
        -0.000144   -0.007264   -0.007264
        -0.007264   -0.000144   -0.007264
        -0.007264   -0.007264   -0.000144

siesta: Pressure (total):          0.23132822  kBar

mulliken: Mulliken Atomic and Orbital Populations:

Species: Si                  
Atom  Qatom  Qorb
               3s      3s      3py     3pz     3px     3py     3pz     3px     
               3Pdxy   3Pdyz   3Pdz2   3Pdxz   3Pdx2-y2
   1  4.002   0.630   0.575   0.218   0.218   0.218   0.538   0.538   0.538
              0.125   0.125   0.077   0.125   0.077
   2  4.000   0.633   0.573   0.216   0.216   0.216   0.538   0.538   0.538
              0.126   0.126   0.076   0.126   0.076
   3  3.999   0.639   0.570   0.218   0.223   0.218   0.536   0.533   0.536
              0.125   0.125   0.075   0.125   0.076
   4  4.000   0.638   0.570   0.220   0.221   0.220   0.535   0.534   0.535
              0.125   0.125   0.076   0.125   0.076
   5  3.999   0.639   0.570   0.223   0.218   0.218   0.533   0.536   0.536
              0.125   0.125   0.076   0.125   0.075
   6  4.000   0.638   0.570   0.221   0.220   0.220   0.534   0.535   0.535
              0.125   0.125   0.076   0.125   0.076
   7  3.999   0.639   0.570   0.218   0.218   0.223   0.536   0.536   0.533
              0.125   0.125   0.076   0.125   0.075
   8  4.000   0.638   0.570   0.220   0.220   0.221   0.535   0.535   0.534
              0.125   0.125   0.076   0.125   0.076

mulliken: Qtot =       32.000

cgvc: Finished line minimization    3.  Mean atomic displacement =    0.0727

* Maximum dynamic memory allocated =   216 MB

siesta:                 ==============================
                            Begin CG move =     11
                        ==============================

outcoor: Atomic coordinates (Ang):                          
    0.13623989    0.13624077    0.13624152   1       1  Si
    1.51311989    1.51312010    1.51311647   1       2  Si
    2.89114718    2.89114754    0.16291080   1       3  Si
    4.25686164    4.25686181    1.56404067   1       4  Si
    2.89114965    0.16291098    2.89114993   1       5  Si
    4.25686038    1.56404094    4.25686147   1       6  Si
    0.16291035    2.89115020    2.89115061   1       7  Si
    1.56404100    4.25686050    4.25686142   1       8  Si
 Kpoints in:  108 . Kpoints trimmed:  108

siesta: k-grid: Number of k-points =   108
siesta: k-grid: Cutoff (effective) =    16.348 Ang
siesta: k-grid: Supercell and displacements
siesta: k-grid:    6   0   0      0.500
siesta: k-grid:    0   6   0      0.500
siesta: k-grid:    0   0   6      0.500
Naive supercell factors:     5    5    5

superc: Internal auxiliary supercell:     5 x     5 x     5  =     125
superc: Number of atoms, orbitals, and projectors:   1000  13000  16000

outcell: Unit cell vectors (Ang):
        5.449430    0.009465    0.009465
        0.009465    5.449430    0.009466
        0.009465    0.009466    5.449430

outcell: Cell vector modules (Ang)   :    5.449447    5.449447    5.449447
outcell: Cell angles (23,13,12) (deg):     89.8008     89.8008     89.8008
outcell: Cell volume (Ang**3)        :    161.8264
New_DM. Step:    12
Re-using DM from previous geometry...
Re-using DM without extrapolation (not allowed)
Density Matrix sparsity pattern changed.

InitMesh: MESH =    54 x    54 x    54 =      157464
InitMesh: Mesh cutoff (required, used) =   260.000   271.391 Ry

siesta: iscf   Eharris(eV)      E_KS(eV)   FreeEng(eV)   dDmax  Ef(eV)
siesta:    1     -861.9507     -861.7806     -861.7806  0.0200 -5.3086
siesta:    2     -861.9811     -861.9207     -861.9207  0.0255 -5.3257
siesta:    3     -861.9407     -861.9077     -861.9077  0.0038 -5.3159
siesta:    4     -861.9406     -861.9332     -861.9332  0.0003 -5.3154

siesta: E_KS(eV) =             -861.9355

siesta: Atomic forces (eV/Ang):
----------------------------------------
   Tot   -0.002308   -0.002310   -0.002320
----------------------------------------
   Max    0.429423
   Res    0.225482    sqrt( Sum f_i^2 / 3N )
----------------------------------------
   Max    0.429423    constrained

Stress-tensor-Voigt (kbar):        2.92        2.92        2.92        7.67        7.67        7.67
(Free)E + p*V (eV/cell)     -862.2306
Target enthalpy (eV/cell)     -861.9355

siesta: Stress tensor (static) (eV/Ang**3):
         0.001824    0.004786    0.004786
         0.004786    0.001824    0.004786
         0.004786    0.004786    0.001824

siesta: Pressure (static):         -2.92195946  kBar

siesta: Stress tensor (total) (eV/Ang**3):
         0.001824    0.004786    0.004786
         0.004786    0.001824    0.004786
         0.004786    0.004786    0.001824

siesta: Pressure (total):         -2.92195946  kBar

mulliken: Mulliken Atomic and Orbital Populations:

Species: Si                  
Atom  Qatom  Qorb
               3s      3s      3py     3pz     3px     3py     3pz     3px     
               3Pdxy   3Pdyz   3Pdz2   3Pdxz   3Pdx2-y2
   1  3.999   0.648   0.565   0.226   0.226   0.226   0.530   0.530   0.530
              0.123   0.123   0.074   0.123   0.074
   2  3.998   0.659   0.560   0.231   0.231   0.231   0.525   0.525   0.525
              0.122   0.122   0.073   0.122   0.073
   3  4.000   0.637   0.571   0.223   0.219   0.223   0.534   0.536   0.534
              0.124   0.125   0.076   0.125   0.075
   4  4.001   0.634   0.572   0.224   0.212   0.224   0.534   0.541   0.534
              0.124   0.125   0.077   0.125   0.075
   5  4.000   0.637   0.571   0.219   0.223   0.223   0.536   0.534   0.534
              0.125   0.125   0.075   0.124   0.076
   6  4.001   0.634   0.572   0.212   0.224   0.224   0.541   0.534   0.534
              0.125   0.125   0.075   0.124   0.076
   7  4.000   0.637   0.571   0.223   0.223   0.219   0.534   0.534   0.536
              0.125   0.124   0.075   0.125   0.076
   8  4.001   0.634   0.572   0.224   0.224   0.212   0.534   0.534   0.541
              0.125   0.124   0.075   0.125   0.076

mulliken: Qtot =       32.000

* Maximum dynamic memory allocated =   216 MB

siesta:                 ==============================
                            Begin CG move =     12
                        ==============================

outcoor: Atomic coordinates (Ang):                          
    0.12946561    0.12946605    0.12946655   1       1  Si
    1.49244051    1.49244070    1.49243900   1       2  Si
    2.86931875    2.86931892    0.15016358   1       3  Si
    4.23023820    4.23023830    1.52260994   1       4  Si
    2.86931976    0.15016382    2.86932006   1       5  Si
    4.23023747    1.52260996    4.23023807   1       6  Si
    0.15016344    2.86932012    2.86932044   1       7  Si
    1.52260999    4.23023755    4.23023808   1       8  Si
 Kpoints in:  108 . Kpoints trimmed:  108

siesta: k-grid: Number of k-points =   108
siesta: k-grid: Cutoff (effective) =    16.336 Ang
siesta: k-grid: Supercell and displacements
siesta: k-grid:    6   0   0      0.500
siesta: k-grid:    0   6   0      0.500
siesta: k-grid:    0   0   6      0.500
Naive supercell factors:     5    5    5

superc: Internal auxiliary supercell:     5 x     5 x     5  =     125
superc: Number of atoms, orbitals, and projectors:   1000  13000  16000

outcell: Unit cell vectors (Ang):
        5.445376   -0.016116   -0.016116
       -0.016116    5.445376   -0.016116
       -0.016116   -0.016116    5.445376

outcell: Cell vector modules (Ang)   :    5.445424    5.445424    5.445424
outcell: Cell angles (23,13,12) (deg):     90.3386     90.3386     90.3386
outcell: Cell volume (Ang**3)        :    161.4627
New_DM. Step:    13
Re-using DM from previous geometry...
Re-using DM without extrapolation (not allowed)
Density Matrix sparsity pattern changed.

InitMesh: MESH =    54 x    54 x    54 =      157464
InitMesh: Mesh cutoff (required, used) =   260.000   271.804 Ry

siesta: iscf   Eharris(eV)      E_KS(eV)   FreeEng(eV)   dDmax  Ef(eV)
siesta:    1     -861.9603     -862.0092     -862.0092  0.0066 -5.3222
siesta:    2     -861.9675     -861.9530     -861.9530  0.0129 -5.3181
siesta:    3     -861.9578     -861.9636     -861.9636  0.0018 -5.3198
siesta:    4     -861.9578     -861.9560     -861.9560  0.0002 -5.3197

siesta: E_KS(eV) =             -861.9565

siesta: Atomic forces (eV/Ang):
----------------------------------------
   Tot   -0.001783   -0.001782   -0.001763
----------------------------------------
   Max    0.188964
   Res    0.109831    sqrt( Sum f_i^2 / 3N )
----------------------------------------
   Max    0.188964    constrained

Stress-tensor-Voigt (kbar):        1.88        1.88        1.88       -1.64       -1.64       -1.64
(Free)E + p*V (eV/cell)     -862.1461
Target enthalpy (eV/cell)     -861.9565

siesta: Stress tensor (static) (eV/Ang**3):
         0.001174   -0.001021   -0.001021
        -0.001021    0.001174   -0.001021
        -0.001021   -0.001021    0.001174

siesta: Pressure (static):         -1.88125315  kBar

siesta: Stress tensor (total) (eV/Ang**3):
         0.001174   -0.001021   -0.001021
        -0.001021    0.001174   -0.001021
        -0.001021   -0.001021    0.001174

siesta: Pressure (total):         -1.88125315  kBar

mulliken: Mulliken Atomic and Orbital Populations:

Species: Si                  
Atom  Qatom  Qorb
               3s      3s      3py     3pz     3px     3py     3pz     3px     
               3Pdxy   3Pdyz   3Pdz2   3Pdxz   3Pdx2-y2
   1  4.000   0.639   0.570   0.221   0.221   0.221   0.534   0.534   0.534
              0.124   0.124   0.076   0.124   0.076
   2  3.998   0.646   0.566   0.224   0.224   0.224   0.532   0.532   0.532
              0.124   0.124   0.075   0.124   0.075
   3  4.000   0.639   0.570   0.221   0.221   0.221   0.535   0.535   0.535
              0.125   0.125   0.075   0.125   0.075
   4  4.001   0.636   0.571   0.222   0.216   0.222   0.535   0.538   0.535
              0.124   0.125   0.076   0.125   0.075
   5  4.000   0.639   0.570   0.221   0.221   0.221   0.535   0.535   0.535
              0.125   0.125   0.075   0.125   0.075
   6  4.001   0.636   0.571   0.216   0.222   0.222   0.538   0.535   0.535
              0.125   0.125   0.076   0.124   0.076
   7  4.000   0.639   0.570   0.221   0.221   0.221   0.535   0.535   0.535
              0.125   0.125   0.075   0.125   0.075
   8  4.001   0.636   0.571   0.222   0.222   0.216   0.535   0.535   0.538
              0.125   0.124   0.076   0.125   0.076

mulliken: Qtot =       32.000

cgvc: Finished line minimization    4.  Mean atomic displacement =    0.0368

* Maximum dynamic memory allocated =   216 MB

siesta:                 ==============================
                            Begin CG move =     13
                        ==============================

outcoor: Atomic coordinates (Ang):                          
    0.14392865    0.14392928    0.14392940   1       1  Si
    1.50954074    1.50954110    1.50954017   1       2  Si
    2.88873090    2.88873105    0.17373770   1       3  Si
    4.24577939    4.24577962    1.54489929   1       4  Si
    2.88873167    0.17373851    2.88873174   1       5  Si
    4.24577898    1.54489893    4.24578014   1       6  Si
    0.17373831    2.88873210    2.88873223   1       7  Si
    1.54489891    4.24577941    4.24578000   1       8  Si
 Kpoints in:  108 . Kpoints trimmed:  108

siesta: k-grid: Number of k-points =   108
siesta: k-grid: Cutoff (effective) =    16.339 Ang
siesta: k-grid: Supercell and displacements
siesta: k-grid:    6   0   0      0.500
siesta: k-grid:    0   6   0      0.500
siesta: k-grid:    0   0   6      0.500
Naive supercell factors:     5    5    5

superc: Internal auxiliary supercell:     5 x     5 x     5  =     125
superc: Number of atoms, orbitals, and projectors:   1000  13000  16000

outcell: Unit cell vectors (Ang):
        5.446310    0.006220    0.006220
        0.006220    5.446310    0.006220
        0.006220    0.006220    5.446310

outcell: Cell vector modules (Ang)   :    5.446317    5.446317    5.446317
outcell: Cell angles (23,13,12) (deg):     89.8691     89.8691     89.8691
outcell: Cell volume (Ang**3)        :    161.5494
New_DM. Step:    14
Re-using DM from previous geometry...
Re-using DM without extrapolation (not allowed)
Density Matrix sparsity pattern changed.

InitMesh: MESH =    54 x    54 x    54 =      157464
InitMesh: Mesh cutoff (required, used) =   260.000   271.699 Ry

siesta: iscf   Eharris(eV)      E_KS(eV)   FreeEng(eV)   dDmax  Ef(eV)
siesta:    1     -861.9680     -861.9385     -861.9385  0.0196 -5.3339
siesta:    2     -861.9685     -861.9664     -861.9664  0.0051 -5.3341
siesta:    3     -861.9673     -861.9663     -861.9663  0.0005 -5.3338

siesta: E_KS(eV) =             -861.9669

siesta: Atomic forces (eV/Ang):
----------------------------------------
   Tot   -0.002609   -0.002610   -0.002607
----------------------------------------
   Max    0.096900
   Res    0.057737    sqrt( Sum f_i^2 / 3N )
----------------------------------------
   Max    0.096900    constrained

Stress-tensor-Voigt (kbar):        2.03        2.03        2.03        1.45        1.45        1.45
(Free)E + p*V (eV/cell)     -862.1715
Target enthalpy (eV/cell)     -861.9669

siesta: Stress tensor (static) (eV/Ang**3):
         0.001266    0.000904    0.000904
         0.000904    0.001266    0.000904
         0.000904    0.000904    0.001267

siesta: Pressure (static):         -2.02913299  kBar

siesta: Stress tensor (total) (eV/Ang**3):
         0.001266    0.000904    0.000904
         0.000904    0.001266    0.000904
         0.000904    0.000904    0.001267

siesta: Pressure (total):         -2.02913299  kBar

mulliken: Mulliken Atomic and Orbital Populations:

Species: Si                  
Atom  Qatom  Qorb
               3s      3s      3py     3pz     3px     3py     3pz     3px     
               3Pdxy   3Pdyz   3Pdz2   3Pdxz   3Pdx2-y2
   1  3.999   0.645   0.567   0.223   0.223   0.223   0.532   0.532   0.532
              0.124   0.124   0.075   0.124   0.075
   2  3.999   0.647   0.566   0.225   0.225   0.225   0.531   0.531   0.531
              0.123   0.123   0.075   0.123   0.075
   3  4.000   0.637   0.570   0.222   0.218   0.222   0.535   0.537   0.535
              0.124   0.125   0.076   0.125   0.075
   4  4.000   0.637   0.571   0.221   0.217   0.221   0.535   0.538   0.535
              0.124   0.125   0.076   0.125   0.075
   5  4.000   0.637   0.570   0.218   0.222   0.222   0.537   0.535   0.535
              0.125   0.125   0.075   0.124   0.076
   6  4.000   0.637   0.571   0.217   0.221   0.221   0.538   0.535   0.535
              0.125   0.125   0.075   0.124   0.076
   7  4.000   0.637   0.570   0.222   0.222   0.218   0.535   0.535   0.537
              0.125   0.124   0.075   0.125   0.076
   8  4.000   0.637   0.571   0.221   0.221   0.217   0.535   0.535   0.538
              0.125   0.124   0.075   0.125   0.076

mulliken: Qtot =       32.000

* Maximum dynamic memory allocated =   216 MB

siesta:                 ==============================
                            Begin CG move =     14
                        ==============================

outcoor: Atomic coordinates (Ang):                          
    0.14364500    0.14364562    0.14364575   1       1  Si
    1.50920716    1.50920752    1.50920658   1       2  Si
    2.88835253    2.88835267    0.17327782   1       3  Si
    4.24547861    4.24547884    1.54446687   1       4  Si
    2.88835331    0.17327863    2.88835337   1       5  Si
    4.24547819    1.54446651    4.24547935   1       6  Si
    0.17327842    2.88835373    2.88835386   1       7  Si
    1.54446650    4.24547862    4.24547921   1       8  Si
 Kpoints in:  108 . Kpoints trimmed:  108

siesta: k-grid: Number of k-points =   108
siesta: k-grid: Cutoff (effective) =    16.339 Ang
siesta: k-grid: Supercell and displacements
siesta: k-grid:    6   0   0      0.500
siesta: k-grid:    0   6   0      0.500
siesta: k-grid:    0   0   6      0.500
Naive supercell factors:     5    5    5

superc: Internal auxiliary supercell:     5 x     5 x     5  =     125
superc: Number of atoms, orbitals, and projectors:   1000  13000  16000

outcell: Unit cell vectors (Ang):
        5.446292    0.005785    0.005785
        0.005785    5.446292    0.005785
        0.005785    0.005785    5.446292

outcell: Cell vector modules (Ang)   :    5.446298    5.446298    5.446298
outcell: Cell angles (23,13,12) (deg):     89.8782     89.8782     89.8782
outcell: Cell volume (Ang**3)        :    161.5479
New_DM. Step:    15
Re-using DM from previous geometry...
Re-using DM without extrapolation (not allowed)
Density Matrix sparsity pattern changed.

InitMesh: MESH =    54 x    54 x    54 =      157464
InitMesh: Mesh cutoff (required, used) =   260.000   271.700 Ry

siesta: iscf   Eharris(eV)      E_KS(eV)   FreeEng(eV)   dDmax  Ef(eV)
siesta:    1     -861.9673     -861.9672     -861.9672  0.0003 -5.3339

siesta: E_KS(eV) =             -861.9673

siesta: Atomic forces (eV/Ang):
----------------------------------------
   Tot   -0.002651   -0.002654   -0.002645
----------------------------------------
   Max    0.094117
[...]
         10.41  11.00  11.06  11.30  11.46  11.74  12.03  12.43  13.02  13.35
         14.09  14.31  14.53  14.63  14.69  15.69  16.18  16.42  16.47  17.17
         17.71  17.85  18.73  18.91  19.47  20.79  21.90  22.31  23.26  23.43
         23.83  24.01  24.80  25.18  26.46  26.60  32.95  37.77  39.04  41.21
         44.09  54.48  54.59  56.89  58.61  64.07  65.80  67.79  67.98  69.21
         73.43  86.51  89.16  90.74
  93  1 -16.58 -15.90 -14.72 -14.37 -12.51 -12.12 -10.68  -9.95  -9.68  -9.63
         -8.57  -8.33  -8.12  -7.86  -7.61  -6.66  -3.53  -3.51  -3.03  -2.40
         -2.16  -1.88  -1.86  -1.07  -1.04  -0.88  -0.65  -0.53   0.45   0.46
          1.12   1.90   1.92   1.96   2.54   3.47   3.92   3.96   4.58   5.57
          5.67   5.68   7.47   7.82   8.19   8.48   8.90   9.26   9.48  10.14
         10.41  10.98  11.06  11.31  11.45  11.75  12.03  12.42  13.02  13.33
         14.10  14.29  14.53  14.63  14.69  15.71  16.19  16.43  16.47  17.17
         17.71  17.86  18.73  18.92  19.48  20.81  21.90  22.29  23.27  23.43
         23.84  24.02  24.79  25.20  26.46  26.61  33.01  37.76  39.04  41.18
         44.24  54.33  54.59  56.86  58.56  64.12  65.80  67.80  68.02  69.26
         73.46  86.54  89.21  90.70
  94  1 -16.37 -15.72 -14.79 -14.79 -12.45 -12.44 -11.39 -10.58  -9.19  -9.18
         -8.14  -7.84  -7.84  -7.52  -7.00  -6.97  -3.64  -3.41  -3.28  -3.27
         -2.32  -1.69  -1.68  -1.50  -1.39  -0.68  -0.54   0.32   0.33   0.45
          0.69   0.69   2.74   2.74   3.23   3.24   4.78   4.91   5.05   5.33
          5.40   5.40   6.44   6.44   7.24   8.12   8.78   9.15   9.16   9.17
          9.31   9.33  11.09  11.42  11.42  11.79  13.09  13.32  13.51  13.52
         13.63  14.76  15.03  15.03  16.22  16.22  16.67  16.72  17.27  17.48
         17.50  17.91  17.91  19.27  19.28  19.30  20.90  22.26  22.42  23.96
         24.60  24.60  25.45  27.47  28.12  28.12  32.67  33.51  36.49  36.49
         41.82  49.41  56.19  56.21  57.24  62.26  64.34  68.92  68.92  70.05
         81.63  86.86  86.93  94.72
  95  1 -15.96 -15.40 -15.39 -15.03 -12.48 -12.08 -12.07 -11.43  -8.70  -8.27
         -8.27  -7.55  -7.29  -7.25  -7.24  -6.68  -3.51  -3.48  -3.09  -3.08
         -2.40  -2.40  -2.02  -1.99  -1.55  -1.17  -1.04  -1.04   1.21   1.21
          2.02   2.21   2.40   3.06   3.44   3.88   3.89   4.26   4.26   4.49
          5.13   6.93   6.95   7.14   7.14   7.66   7.99   8.61   8.81   8.83
          8.97   9.23   9.30  10.08  10.52  10.52  13.86  14.10  14.10  15.10
         15.10  15.16  15.60  15.85  15.90  15.99  16.58  16.61  17.77  18.40
         18.47  18.48  19.09  19.09  19.43  19.91  20.58  20.60  21.29  21.93
         27.02  27.26  27.26  28.98  29.13  32.58  32.59  34.70  39.95  41.72
         41.75  48.14  55.71  55.80  58.58  59.60  64.94  76.56  76.58  80.89
         81.90  81.94  90.33  94.04
  96  1 -15.96 -15.41 -15.40 -15.03 -12.48 -12.08 -12.07 -11.43  -8.70  -8.27
         -8.27  -7.55  -7.28  -7.25  -7.24  -6.68  -3.52  -3.48  -3.09  -3.08
         -2.40  -2.39  -2.03  -1.99  -1.55  -1.18  -1.04  -1.03   1.22   1.23
          2.02   2.20   2.42   3.05   3.43   3.88   3.88   4.25   4.26   4.49
          5.13   6.93   6.93   7.12   7.14   7.65   8.00   8.61   8.80   8.82
          8.96   9.25   9.32  10.09  10.52  10.54  13.86  14.09  14.11  15.09
         15.10  15.16  15.60  15.86  15.89  15.99  16.58  16.59  17.76  18.41
         18.46  18.48  19.05  19.08  19.42  19.90  20.59  20.59  21.27  21.97
         27.00  27.24  27.26  28.99  29.12  32.58  32.59  34.66  39.97  41.72
         41.73  48.10  55.77  55.80  58.50  59.55  64.80  76.47  76.52  80.94
         81.94  81.97  90.37  93.86
  97  1 -15.96 -15.40 -15.39 -15.04 -12.47 -12.08 -12.07 -11.43  -8.70  -8.28
         -8.27  -7.55  -7.28  -7.25  -7.24  -6.68  -3.52  -3.47  -3.10  -3.09
         -2.40  -2.39  -2.02  -2.00  -1.54  -1.18  -1.04  -1.04   1.22   1.23
          2.03   2.21   2.41   3.05   3.43   3.88   3.88   4.24   4.24   4.48
          5.11   6.93   6.93   7.14   7.14   7.66   7.99   8.61   8.81   8.82
          8.94   9.25   9.32  10.10  10.54  10.54  13.87  14.11  14.11  15.08
         15.09  15.15  15.61  15.86  15.89  15.98  16.58  16.58  17.75  18.41
         18.47  18.47  19.09  19.09  19.42  19.89  20.58  20.58  21.28  21.95
         27.02  27.25  27.25  28.98  29.11  32.53  32.53  34.69  39.97  41.70
         41.76  48.17  55.60  55.70  58.64  59.56  64.85  76.47  76.49  80.87
         81.90  81.92  90.41  94.02
  98  1 -16.14 -15.51 -15.50 -14.98 -12.01 -11.38 -11.38 -10.57  -9.73  -9.23
         -9.22  -8.61  -7.41  -7.35  -7.34  -6.61  -3.63  -2.90  -2.69  -2.68
         -2.02  -2.02  -1.61  -1.43  -0.32  -0.31  -0.28  -0.13   0.23   0.23
          0.53   0.98   1.56   1.93   2.32   2.57   2.58   4.10   4.10   5.16
          5.75   7.69   7.69   7.97   8.55   8.55   9.37   9.55   9.78   9.89
          9.89  10.61  11.11  11.66  11.67  12.07  12.69  12.89  12.96  12.97
         13.56  13.74  13.76  14.51  15.01  15.25  15.26  15.49  17.59  18.43
         18.45  19.24  20.05  20.05  20.48  20.52  21.75  21.76  21.97  22.49
         25.45  26.05  26.22  26.23  27.99  36.06  36.07  41.23  44.75  44.79
         51.32  51.54  54.40  54.43  59.92  61.59  63.37  69.88  69.90  81.42
         81.47  82.47  85.06  88.02
  99  1 -16.14 -15.51 -15.50 -14.97 -12.01 -11.38 -11.38 -10.57  -9.73  -9.23
         -9.22  -8.61  -7.41  -7.35  -7.34  -6.61  -3.63  -2.90  -2.69  -2.67
         -2.02  -2.01  -1.61  -1.42  -0.33  -0.32  -0.28  -0.14   0.23   0.23
          0.53   0.98   1.57   1.93   2.32   2.58   2.58   4.10   4.10   5.17
          5.76   7.69   7.69   7.97   8.54   8.55   9.37   9.55   9.77   9.91
          9.91  10.60  11.11  11.66  11.67  12.06  12.71  12.88  12.93  12.94
         13.55  13.76  13.77  14.51  15.02  15.26  15.28  15.50  17.59  18.43
         18.45  19.25  20.05  20.05  20.49  20.53  21.75  21.77  21.97  22.47
         25.44  26.05  26.22  26.23  27.98  36.07  36.09  41.22  44.84  44.87
         51.33  51.56  54.40  54.43  59.90  61.57  63.40  69.94  70.05  81.44
         81.48  82.48  85.02  88.04
 100  1 -15.96 -15.40 -15.39 -15.03 -12.48 -12.08 -12.07 -11.43  -8.70  -8.27
         -8.27  -7.55  -7.29  -7.25  -7.24  -6.68  -3.51  -3.48  -3.09  -3.08
         -2.40  -2.40  -2.02  -1.99  -1.55  -1.17  -1.04  -1.04   1.21   1.21
          2.02   2.21   2.40   3.06   3.44   3.88   3.89   4.26   4.26   4.49
          5.13   6.93   6.95   7.14   7.14   7.66   7.99   8.61   8.81   8.83
          8.97   9.23   9.30  10.08  10.52  10.52  13.86  14.10  14.10  15.10
         15.10  15.16  15.60  15.85  15.90  15.99  16.58  16.61  17.77  18.40
         18.47  18.48  19.09  19.09  19.43  19.91  20.58  20.60  21.29  21.93
         27.02  27.26  27.26  28.98  29.13  32.58  32.59  34.70  39.95  41.72
         41.75  48.14  55.71  55.80  58.58  59.60  64.94  76.56  76.58  80.89
         81.90  81.94  90.33  94.04
 101  1 -15.64 -15.27 -15.26 -15.26 -12.58 -12.58 -12.58 -12.17  -7.49  -7.48
         -7.48  -7.07  -7.07  -7.07  -6.84  -6.84  -4.15  -3.68  -3.68  -3.68
         -2.31  -2.31  -2.30  -2.17  -2.17  -1.87  -1.87  -1.86   2.70   2.70
          2.71   3.11   4.00   4.00   4.04   4.04   4.05   5.03   5.34   5.34
          5.34   6.13   6.13   6.14   6.25   6.26   6.26   7.68   7.68   7.89
          7.90   7.90   8.70   8.70   8.71   8.75  15.98  16.00  16.00  16.05
         16.53  16.53  16.76  16.77  16.77  17.42  17.42  17.45  18.21  18.21
         18.21  19.04  19.04  19.06  19.46  19.46  19.49  20.10  20.10  21.95
         28.50  28.50  28.51  29.98  29.98  30.07  30.10  30.10  52.03  52.08
         52.08  56.76  61.65  61.65  61.66  71.77  71.81  71.81  73.95  73.95
         87.33  87.45  87.45 102.93
 102  1 -15.63 -15.28 -15.27 -15.26 -12.58 -12.58 -12.57 -12.18  -7.49  -7.49
         -7.48  -7.07  -7.06  -7.06  -6.84  -6.84  -4.16  -3.68  -3.68  -3.67
         -2.30  -2.30  -2.30  -2.18  -2.16  -1.88  -1.87  -1.87   2.71   2.71
          2.72   3.11   3.99   4.00   4.04   4.04   4.05   5.02   5.32   5.33
          5.33   6.11   6.12   6.13   6.24   6.26   6.26   7.67   7.69   7.90
          7.90   7.92   8.69   8.72   8.72   8.78  15.97  16.00  16.00  16.07
         16.52  16.53  16.77  16.78  16.79  17.42  17.42  17.43  18.17  18.20
         18.21  19.04  19.04  19.05  19.48  19.48  19.48  20.08  20.09  22.01
         28.46  28.47  28.50  29.91  29.99  30.10  30.11  30.12  52.06  52.10
         52.10  56.74  61.52  61.60  61.75  71.74  71.80  71.88  73.76  73.91
         87.27  87.30  87.32 102.82
 103  1 -15.96 -15.41 -15.40 -15.03 -12.48 -12.08 -12.07 -11.43  -8.70  -8.27
         -8.27  -7.55  -7.28  -7.25  -7.24  -6.68  -3.52  -3.48  -3.09  -3.08
         -2.40  -2.39  -2.03  -1.99  -1.55  -1.18  -1.04  -1.03   1.22   1.23
          2.02   2.20   2.42   3.05   3.43   3.88   3.88   4.25   4.26   4.49
          5.13   6.93   6.93   7.12   7.14   7.65   8.00   8.61   8.80   8.82
          8.96   9.25   9.32  10.09  10.52  10.54  13.86  14.09  14.11  15.09
         15.10  15.16  15.60  15.86  15.89  15.99  16.58  16.59  17.76  18.41
         18.46  18.48  19.05  19.08  19.42  19.90  20.59  20.59  21.27  21.97
         27.00  27.24  27.26  28.99  29.12  32.58  32.59  34.66  39.97  41.72
         41.73  48.10  55.77  55.80  58.50  59.55  64.80  76.47  76.52  80.94
         81.94  81.97  90.37  93.86
 104  1 -16.14 -15.51 -15.51 -14.97 -12.02 -11.38 -11.37 -10.58  -9.73  -9.23
         -9.22  -8.61  -7.41  -7.35  -7.34  -6.61  -3.63  -2.91  -2.68  -2.68
         -2.02  -2.01  -1.62  -1.43  -0.32  -0.31  -0.28  -0.14   0.23   0.24
          0.52   0.97   1.55   1.93   2.33   2.58   2.59   4.08   4.08   5.18
          5.77   7.67   7.68   7.98   8.54   8.55   9.39   9.56   9.78   9.89
          9.90  10.60  11.11  11.65  11.67  12.07  12.70  12.88  12.95  12.96
         13.55  13.75  13.76  14.51  15.01  15.26  15.27  15.50  17.61  18.42
         18.44  19.23  20.03  20.05  20.46  20.55  21.76  21.77  21.95  22.50
         25.43  26.05  26.22  26.23  27.98  36.06  36.07  41.24  44.81  44.85
         51.20  51.54  54.49  54.51  59.80  61.62  63.28  69.92  69.95  81.44
         81.50  82.51  85.05  88.05
 105  1 -16.14 -15.51 -15.51 -14.97 -12.02 -11.38 -11.37 -10.58  -9.73  -9.23
         -9.22  -8.61  -7.41  -7.35  -7.34  -6.61  -3.63  -2.91  -2.68  -2.68
         -2.02  -2.01  -1.62  -1.43  -0.32  -0.31  -0.28  -0.14   0.23   0.24
          0.52   0.97   1.55   1.93   2.33   2.58   2.59   4.08   4.08   5.18
          5.77   7.67   7.68   7.98   8.54   8.55   9.39   9.56   9.78   9.89
          9.90  10.60  11.11  11.65  11.67  12.07  12.70  12.88  12.95  12.96
         13.55  13.75  13.76  14.51  15.01  15.26  15.27  15.50  17.61  18.42
         18.44  19.23  20.03  20.05  20.46  20.55  21.76  21.77  21.95  22.50
         25.43  26.05  26.22  26.23  27.98  36.06  36.07  41.24  44.81  44.85
         51.20  51.54  54.49  54.51  59.80  61.62  63.28  69.92  69.95  81.44
         81.50  82.51  85.05  88.05
 106  1 -15.96 -15.41 -15.40 -15.03 -12.48 -12.08 -12.07 -11.43  -8.70  -8.27
         -8.27  -7.55  -7.28  -7.25  -7.24  -6.68  -3.52  -3.48  -3.09  -3.08
         -2.40  -2.39  -2.03  -1.99  -1.55  -1.18  -1.04  -1.03   1.22   1.23
          2.02   2.20   2.42   3.05   3.43   3.88   3.88   4.25   4.26   4.49
          5.13   6.93   6.93   7.12   7.14   7.65   8.00   8.61   8.80   8.82
          8.96   9.25   9.32  10.09  10.52  10.54  13.86  14.09  14.11  15.09
         15.10  15.16  15.60  15.86  15.89  15.99  16.58  16.59  17.76  18.41
         18.46  18.48  19.05  19.08  19.42  19.90  20.59  20.59  21.27  21.97
         27.00  27.24  27.26  28.99  29.12  32.58  32.59  34.66  39.97  41.72
         41.73  48.10  55.77  55.80  58.50  59.55  64.80  76.47  76.52  80.94
         81.94  81.97  90.37  93.86
 107  1 -15.63 -15.28 -15.27 -15.26 -12.58 -12.58 -12.57 -12.18  -7.49  -7.49
         -7.48  -7.07  -7.06  -7.06  -6.84  -6.84  -4.16  -3.68  -3.68  -3.67
         -2.30  -2.30  -2.30  -2.18  -2.16  -1.88  -1.87  -1.87   2.71   2.71
          2.72   3.11   3.99   4.00   4.04   4.04   4.05   5.02   5.32   5.33
          5.33   6.11   6.12   6.13   6.24   6.26   6.26   7.67   7.69   7.90
          7.90   7.92   8.69   8.72   8.72   8.78  15.97  16.00  16.00  16.07
         16.52  16.53  16.77  16.78  16.79  17.42  17.42  17.43  18.17  18.20
         18.21  19.04  19.04  19.05  19.48  19.48  19.48  20.08  20.09  22.01
         28.46  28.47  28.50  29.91  29.99  30.10  30.11  30.12  52.06  52.10
         52.10  56.74  61.52  61.60  61.75  71.74  71.80  71.88  73.76  73.91
         87.27  87.30  87.32 102.82
 108  1 -15.63 -15.28 -15.27 -15.26 -12.58 -12.58 -12.57 -12.18  -7.49  -7.49
         -7.48  -7.07  -7.06  -7.06  -6.84  -6.84  -4.16  -3.68  -3.68  -3.67
         -2.30  -2.30  -2.30  -2.18  -2.16  -1.88  -1.87  -1.87   2.71   2.71
          2.72   3.11   3.99   4.00   4.04   4.04   4.05   5.02   5.32   5.33
          5.33   6.11   6.12   6.13   6.24   6.26   6.26   7.67   7.69   7.90
          7.90   7.92   8.69   8.72   8.72   8.78  15.97  16.00  16.00  16.07
         16.52  16.53  16.77  16.78  16.79  17.42  17.42  17.43  18.17  18.20
         18.21  19.04  19.04  19.05  19.48  19.48  19.48  20.08  20.09  22.01
         28.46  28.47  28.50  29.91  29.99  30.10  30.11  30.12  52.06  52.10
         52.10  56.74  61.52  61.60  61.75  71.74  71.80  71.88  73.76  73.91
         87.27  87.30  87.32 102.82
siesta: Fermi energy =      -5.338184 eV

siesta: Program's energy decomposition (eV):
siesta: Ebs     =      -344.206187
siesta: Eions   =      1510.441798
siesta: Ena     =       465.272824
siesta: Ekin    =       325.142458
siesta: Enl     =       111.030794
siesta: DEna    =         5.089512
siesta: DUscf   =         1.528323
siesta: DUext   =         0.000000
siesta: Exc     =      -259.593165
siesta: eta*DQ  =         0.000000
siesta: Emadel  =         0.000000
siesta: Emeta   =         0.000000
siesta: Emolmec =         0.000000
siesta: Ekinion =         0.000000
siesta: Eharris =      -861.971140
siesta: Etot    =      -861.971052
siesta: FreeEng =      -861.971052

siesta: Final energy (eV):
siesta:  Band Struct. =    -344.206187
siesta:       Kinetic =     325.142458
siesta:       Hartree =      57.845294
siesta:    Ext. field =       0.000000
siesta:   Exch.-corr. =    -259.593165
siesta:  Ion-electron =    -446.562506
siesta:       Ion-ion =    -538.803133
siesta:       Ekinion =       0.000000
siesta:         Total =    -861.971052

siesta: Stress tensor (static) (eV/Ang**3):
siesta:    -0.000357    0.000556    0.000556
siesta:     0.000556   -0.000357    0.000556
siesta:     0.000556    0.000556   -0.000357

siesta: Constrained stress tensor (static) (eV/Ang**3):
siesta:    -0.000357    0.000556    0.000556
siesta:     0.000556   -0.000357    0.000556
siesta:     0.000556    0.000556   -0.000357

siesta: Cell volume =        161.102175 Ang**3

siesta: Pressure (static):
siesta:                Solid            Molecule  Units
siesta:           0.00000389          0.00000748  Ry/Bohr**3
siesta:           0.00035708          0.00068694  eV/Ang**3
siesta:           0.57211431          1.10060810  kBar
(Free)E+ p_basis*V_orbitals  =        -852.997448
(Free)Eharris+ p_basis*V_orbitals  =        -852.997010

* Maximum dynamic memory allocated : Node    0 =   216 MB

* Maximum memory occured during init_pulay_arrrays            

timer: CPU execution times:
timer:  Routine       Calls   Time/call    Tot.time        %
timer:  siesta            1    4347.122    4347.122   100.00
timer:  Setup             1       0.164       0.164     0.00
timer:  bands             3       0.559       1.678     0.04
timer:  writewave         3       0.009       0.026     0.00
timer:  KSV_init          1       0.000       0.000     0.00
timer:  IterMD           18     241.399    4345.185    99.96
timer:  hsparse          18       0.278       5.012     0.12
timer:  overlap          18       0.133       2.392     0.06
timer:  IterSCF          89      38.136    3394.115    78.08
timer:  kinefsm          36       0.136       4.913     0.11
timer:  nlefsm           36       5.268     189.656     4.36
timer:  DHSCF           107      31.173    3335.523    76.73
timer:  DHSCF1           18       0.172       3.091     0.07
timer:  DHSCF2           18      11.324     203.836     4.69
timer:  REORD           678       0.001       0.341     0.01
timer:  POISON          125       0.021       2.683     0.06
timer:  DHSCF3          107      25.514    2730.041    62.80
timer:  rhoofd          107      12.474    1334.718    30.70
timer:  cellXC          107       0.104      11.166     0.26
timer:  vmat            107      12.905    1380.887    31.77
timer:  MolMec           36       0.000       0.001     0.00
timer:  diagon           89       8.972     798.513    18.37
timer:  c-eigval      11249       0.019     211.250     4.86
timer:  c-buildHS     11249       0.013     142.004     3.27
timer:  cdiag         22398       0.009     203.102     4.67
timer:  cdiag1        22398       0.001      18.588     0.43
timer:  cdiag2        22398       0.002      55.379     1.27
timer:  cdiag3        22398       0.006     125.200     2.88
timer:  cdiag4        22398       0.000       2.747     0.06
timer:  c-eigvec      11149       0.025     275.608     6.34
timer:  c-buildD      11148       0.028     312.418     7.19
timer:  DHSCF4           18      22.136     398.454     9.17
timer:  dfscf            18      19.787     356.168     8.19
timer:  overfsm          18       0.127       2.286     0.05
timer:  optical           1       0.000       0.000     0.00
  

elaps: ELAPSED times:
elaps:  Routine       Calls   Time/call    Tot.time        %
elaps:  siesta            1    4353.273    4353.273   100.00
elaps:  Setup             1       0.189       0.189     0.00
elaps:  bands             3       0.559       1.678     0.04
elaps:  writewave         3       0.009       0.026     0.00
elaps:  KSV_init          1       0.000       0.000     0.00
elaps:  IterMD           18     241.734    4351.218    99.95
elaps:  hsparse          18       0.278       5.013     0.12
elaps:  overlap          18       0.133       2.395     0.06
elaps:  IterSCF          89      38.178    3397.880    78.05
elaps:  kinefsm          36       0.137       4.914     0.11
elaps:  nlefsm           36       5.269     189.696     4.36
elaps:  DHSCF           107      31.205    3338.933    76.70
elaps:  DHSCF1           18       0.250       4.498     0.10
elaps:  DHSCF2           18      11.387     204.959     4.71
elaps:  REORD           678       0.001       0.339     0.01
elaps:  POISON          125       0.022       2.701     0.06
elaps:  DHSCF3          107      25.521    2730.760    62.73
elaps:  rhoofd          107      12.477    1335.020    30.67
elaps:  cellXC          107       0.104      11.170     0.26
elaps:  vmat            107      12.909    1381.304    31.73
elaps:  MolMec           36       0.000       0.000     0.00
elaps:  diagon           89       8.977     798.920    18.35
elaps:  c-eigval      11249       0.019     211.352     4.86
elaps:  c-buildHS     11249       0.013     142.141     3.27
elaps:  cdiag         22398       0.009     203.123     4.67
elaps:  cdiag1        22398       0.001      18.618     0.43
elaps:  cdiag2        22398       0.002      55.414     1.27
elaps:  cdiag3        22398       0.006     125.352     2.88
elaps:  cdiag4        22398       0.000       2.746     0.06
elaps:  c-eigvec      11149       0.025     275.743     6.33
elaps:  c-buildD      11148       0.028     312.650     7.18
elaps:  DHSCF4           18      22.139     398.505     9.15
elaps:  dfscf            18      19.790     356.216     8.18
elaps:  overfsm          18       0.127       2.286     0.05
elaps:  optical           1       0.002       0.002     0.00
  
>> End of run:  13-MAY-2013  18:57:43
