Siesta Version:                                        siesta-3.2
Architecture  : i686-apple-darwin10.8.0--unknown
Compiler flags: g95 -g -O2
SERIAL version

* Running in serial mode
>> Start of run:  14-MAY-2013  10:13:32

                           ***********************       
                           *  WELCOME TO SIESTA  *       
                           ***********************       

reinit: Reading from standard input
************************** Dump of input data file ****************************
# FDF for silicon
SystemName             silicon          # Descriptive name of the system
SystemLabel            si          # Short name for naming files
NumberOfAtoms 8
NumberOfSpecies 1
%block ChemicalSpeciesLabel
1 14 Si
%endblock ChemicalSpeciesLabel
LatticeConstant  5.05 Ang
##Basis set Definition##
PAO.BasisType          split        # Type of PAO basis set
PAO.EnergyShift        50 meV
PAO.BasisSize          DZP          # (DZP) Double-z + polarization
#%block LatticeVectors
#0.500 0.500 0.000
#0.500 0.000 0.500
#0.000 0.500 0.500
#%endblock LatticeVectors
AtomicCoordinatesFormat NotScaledCartesianAng
%block AtomicCoordinatesAndAtomicSpecies
	0.00000000	0.00000000	0.00000000  1 Si  1
	1.36000000	1.36000000	1.36000000  1 Si  2
	2.72000000	2.72000000	0.00000000  1 Si  3
	4.08000000	4.08000000	1.36000000  1 Si  4
	2.72000000	0.00000000	2.72000000  1 Si  5
	4.08000000	1.36000000	4.08000000  1 Si  6
	0.00000000	2.72000000	2.72000000  1 Si  7
	1.36000000	4.08000000	4.08000000  1 Si  8
%endblock AtomicCoordinatesAndAtomicSpecies
MeshCutoff 100.0 Ry # 100, 120, 180, 260
kgrid_cutoff 35.0 Bohr # 30, 35, 40, 45
DM.Mixingweight  0.3
DM.NumberPulay    3
DM.Tolerance      1.d-3
DM.UseSaveDM      true
ElectronicTemperature 25 meV
SolutionMethod    diagon
XC.functional     LDA	    # Local Density Approximation
XC.authors        CA           # Ceperley-Alder
SpinPolarized     false
MD.TypeOfRun           CG           # Type of dynamics:
MD.VariableCell        true
MD.NumCGsteps          100          # Number of CG steps for coordinate optimization
MD.MaxCGDispl          0.2 Bohr     # Maximum atomic displacement
                                    #   in one CG step (Bohr)
MD.MaxForceTol         0.04 eV/Ang  # Tolerance in the maximum
                                    #   atomic force (Ry/Bohr)
				
##Output Specification##
WriteMDhistory         true         # Trajectory information
WriteCoorStep          true
WriteCoorXmol          true
WriteMDXmol            true
WriteEigenvalues true
WriteKbands      true
WriteBands       true
WriteWaveFunctions true
WriteMullikenPoP   1
%block BandLines
1	1.000	1.000 1.000 L
25	0.000	0.000	0.000 \Gamma
30	2.000	0.000	0.000 X
10	2.000	0.500	0.500 U
35	0.000	0.000	0.000 \Gamma
%endblock BandLines
%block WaveFuncKPoints
0.0 0.0 0.0 from 1 to 50 # > 16 = 4/2*8 (Valenzelektronen/2, Atomzahl ...)
%endblock WaveFuncKpoints
************************** End of input data file *****************************

reinit: -----------------------------------------------------------------------
reinit: System Name: silicon
reinit: -----------------------------------------------------------------------
reinit: System Label: si                                                          
reinit: -----------------------------------------------------------------------

initatom: Reading input for the pseudopotentials and atomic orbitals ----------
 Species number:  1  Label: Si Atomic number: 14
Ground state valence configuration:   3s02  3p02
Reading pseudopotential information in formatted form from Si.psf

Valence configuration for pseudopotential generation:
3s( 2.00) rc: 1.75
3p( 2.00) rc: 1.94
3d( 0.00) rc: 2.09
4f( 0.00) rc: 2.09
For Si, standard SIESTA heuristics set lmxkb to 3
 (one more than the basis l, including polarization orbitals).
Use PS.lmax or PS.KBprojectors blocks to override.

<basis_specs>
===============================================================================
Si                   Z=  14    Mass=  28.090        Charge= 0.17977+309
Lmxo=1 Lmxkb= 3    BasisType=split      Semic=F
L=0  Nsemic=0  Cnfigmx=3
          n=1  nzeta=2  polorb=0
            splnorm:   0.15000    
               vcte:    0.0000    
               rinn:    0.0000    
                rcs:    0.0000      0.0000    
            lambdas:    1.0000      1.0000    
L=1  Nsemic=0  Cnfigmx=3
          n=1  nzeta=2  polorb=1
            splnorm:   0.15000    
               vcte:    0.0000    
               rinn:    0.0000    
                rcs:    0.0000      0.0000    
            lambdas:    1.0000      1.0000    
-------------------------------------------------------------------------------
L=0  Nkbl=1  erefs: 0.17977+309
L=1  Nkbl=1  erefs: 0.17977+309
L=2  Nkbl=1  erefs: 0.17977+309
L=3  Nkbl=1  erefs: 0.17977+309
===============================================================================
</basis_specs>

atom: Called for Si                    (Z =  14)

read_vps: Pseudopotential generation method:
read_vps: ATM3      Troullier-Martins                       
Total valence charge:    4.00000

xc_check: Exchange-correlation functional:
xc_check: Ceperley-Alder
V l=0 = -2*Zval/r beyond r=  2.5494
V l=1 = -2*Zval/r beyond r=  2.5494
V l=2 = -2*Zval/r beyond r=  2.5494
V l=3 = -2*Zval/r beyond r=  2.5494
All V_l potentials equal beyond r=  2.0613
This should be close to max(r_c) in ps generation
All pots = -2*Zval/r beyond r=  2.5494

VLOCAL1: 99.0% of the norm of Vloc inside     10.216 Ry
VLOCAL1: 99.9% of the norm of Vloc inside     23.282 Ry
atom: Maximum radius for 4*pi*r*r*local-pseudopot. charge    2.45560
atom: Maximum radius for r*vlocal+2*Zval:    2.14012
GHOST: No ghost state for L =  0
GHOST: No ghost state for L =  1
GHOST: No ghost state for L =  2
GHOST: No ghost state for L =  3

KBgen: Kleinman-Bylander projectors: 
   l= 0   rc=  2.782581   el= -0.796617   Ekb=  4.840502   kbcos=  0.288423
   l= 1   rc=  2.888916   el= -0.307040   Ekb=  1.512733   kbcos=  0.296968
   l= 2   rc=  2.962054   el=  0.002313   Ekb= -2.156507   kbcos= -0.061834
   l= 3   rc=  3.192765   el=  0.003402   Ekb= -0.600958   kbcos= -0.007408

KBgen: Total number of  Kleinman-Bylander projectors:   16
atom: -------------------------------------------------------------------------

atom: SANKEY-TYPE ORBITALS:
atom: Selected multiple-zeta basis: split     

SPLIT: Orbitals with angular momentum L= 0

SPLIT: Basis orbitals for state 3s

SPLIT: PAO cut-off radius determined from an
SPLIT: energy shift=  0.003675 Ry

   izeta = 1
                 lambda =    1.000000
                     rc =    6.116033
                 energy =   -0.793486
                kinetic =    0.528761
    potential(screened) =   -1.322246
       potential(ionic) =   -3.766038

   izeta = 2
                 rmatch =    4.530823
              splitnorm =    0.150000
                 energy =   -0.697320
                kinetic =    0.853435
    potential(screened) =   -1.550756
       potential(ionic) =   -4.120809

SPLIT: Orbitals with angular momentum L= 1

SPLIT: Basis orbitals for state 3p

SPLIT: PAO cut-off radius determined from an
SPLIT: energy shift=  0.003675 Ry

   izeta = 1
                 lambda =    1.000000
                     rc =    7.853192
                 energy =   -0.303674
                kinetic =    0.798475
    potential(screened) =   -1.102149
       potential(ionic) =   -3.307324

   izeta = 2
                 rmatch =    5.397360
              splitnorm =    0.150000
                 energy =   -0.229357
                kinetic =    1.170483
    potential(screened) =   -1.399841
       potential(ionic) =   -3.814095

POLgen: Perturbative polarization orbital with L=  2

POLgen: Polarization orbital for state 3p

   izeta = 1
                     rc =    7.853192
                 energy =    0.331669
                kinetic =    1.088595
    potential(screened) =   -0.756926
       potential(ionic) =   -2.714870
atom: Total number of Sankey-type orbitals: 13

atm_pop: Valence configuration (for local Pseudopot. screening):
 3s( 2.00)                                                            
 3p( 2.00)                                                            
Vna: chval, zval:    4.00000   4.00000

Vna:  Cut-off radius for the neutral-atom potential:   7.853192

atom: _________________________________________________________________________

prinput: Basis input ----------------------------------------------------------

PAO.BasisType split     

%block ChemicalSpeciesLabel
    1   14 Si                      # Species index, atomic number, species label
%endblock ChemicalSpeciesLabel

%block PAO.Basis                 # Define Basis set
Si                    2                    # Species label, number of l-shells
 n=3   0   2                         # n, l, Nzeta 
   6.116      4.531   
   1.000      1.000   
 n=3   1   2 P   1                   # n, l, Nzeta, Polarization, NzetaPol
   7.853      5.397   
   1.000      1.000   
%endblock PAO.Basis

prinput: ----------------------------------------------------------------------

coor:   Atomic-coordinates input format  =     Cartesian coordinates
coor:                                          (in Angstroms)

siesta: Atomic coordinates (Bohr) and species
siesta:      0.00000   0.00000   0.00000  1        1
siesta:      2.57003   2.57003   2.57003  1        2
siesta:      5.14006   5.14006   0.00000  1        3
siesta:      7.71009   7.71009   2.57003  1        4
siesta:      5.14006   0.00000   5.14006  1        5
siesta:      7.71009   2.57003   7.71009  1        6
siesta:      0.00000   5.14006   5.14006  1        7
siesta:      2.57003   7.71009   7.71009  1        8

siesta: System type = bulk      

initatomlists: Number of atoms, orbitals, and projectors:      8   104   128

siesta: ******************** Simulation parameters ****************************
siesta:
siesta: The following are some of the parameters of the simulation.
siesta: A complete list of the parameters used, including default values,
siesta: can be found in file out.fdf
siesta:
redata: Non-Collinear-spin run           =     F
redata: SpinPolarized (Up/Down) run      =     F
redata: Number of spin components        =     1
redata: Long output                      =     F
redata: Number of Atomic Species         =        1
redata: Charge density info will appear in .RHO file
redata: Write Mulliken Pop.              =     Atomic and Orbital charges
redata: Mesh Cutoff                      =   100.0000  Ry
redata: Net charge of the system         =     0.0000 |e|
redata: Max. number of SCF Iter          =       50
redata: Performing Pulay mixing using    =     3 iterations
redata: Mix DM in first SCF step ?       =     F
redata: Write Pulay info on disk?        =     F
redata: Discard 1st Pulay DM after  kick =     F
redata: New DM Mixing Weight             =     0.3000
redata: New DM Occupancy tolerance       = 0.000000000001
redata: No kicks to SCF
redata: DM Mixing Weight for Kicks       =     0.5000
redata: DM Tolerance for SCF             =     0.001000
redata: Require Energy convergence for SCF =     F
redata: DM Energy tolerance for SCF      =     0.000100 eV
redata: Require Harris convergence for SCF =     F
redata: DM Harris energy tolerance for SCF =     0.000100 eV
redata: Using Saved Data (generic)   =     F
redata: Use continuation files for DM    =     T
redata: Neglect nonoverlap interactions  =     F
redata: Method of Calculation            =     Diagonalization
redata: Divide and Conquer               =     T
redata: Electronic Temperature           =     0.0018  Ry
redata: Fix the spin of the system       =     F
redata: Dynamics option                  =     CG coord. optimization
redata: Variable cell                    =     T
redata: Use continuation files for CG    =     F
redata: Max atomic displ per move        =     0.2000  Bohr
redata: Maximum number of CG moves       =      100
redata: Force tolerance                  =     0.0016  Ry/Bohr
redata: Stress tolerance                 =     1.0000  GPa
redata: ***********************************************************************
Total number of electrons:    32.000000
Total ionic charge:    32.000000
 Kpoints in:  256 . Kpoints trimmed:  256

siesta: k-grid: Number of k-points =   256
siesta: k-grid: Cutoff (effective) =    20.200 Ang
siesta: k-grid: Supercell and displacements
siesta: k-grid:    0   8   0      0.500
siesta: k-grid:    0   0   8      0.500
siesta: k-grid:    8   0   0      0.500
Naive supercell factors:     5    5    5

superc: Internal auxiliary supercell:     5 x     5 x     5  =     125
superc: Number of atoms, orbitals, and projectors:   1000  13000  16000

* Maximum dynamic memory allocated =     2 MB

siesta:                 ==============================
                            Begin CG move =      0
                        ==============================

outcoor: Atomic coordinates (Ang):                          
    0.00000000    0.00000000    0.00000000   1       1  Si
    1.36000000    1.36000000    1.36000000   1       2  Si
    2.72000000    2.72000000    0.00000000   1       3  Si
    4.08000000    4.08000000    1.36000000   1       4  Si
    2.72000000    0.00000000    2.72000000   1       5  Si
    4.08000000    1.36000000    4.08000000   1       6  Si
    0.00000000    2.72000000    2.72000000   1       7  Si
    1.36000000    4.08000000    4.08000000   1       8  Si

superc: Internal auxiliary supercell:     5 x     5 x     5  =     125
superc: Number of atoms, orbitals, and projectors:   1000  13000  16000

outcell: Unit cell vectors (Ang):
        5.050000    0.000000    0.000000
        0.000000    5.050000    0.000000
        0.000000    0.000000    5.050000

outcell: Cell vector modules (Ang)   :    5.050000    5.050000    5.050000
outcell: Cell angles (23,13,12) (deg):     90.0000     90.0000     90.0000
outcell: Cell volume (Ang**3)        :    128.7876
New_DM. Step:     1
Initializing Density Matrix...

InitMesh: MESH =    32 x    32 x    32 =       32768
InitMesh: Mesh cutoff (required, used) =   100.000   110.973 Ry

* Maximum dynamic memory allocated =    83 MB

stepf: Fermi-Dirac step function

siesta: Program's energy decomposition (eV):
siesta: Ebs     =      -392.863889
siesta: Eions   =      1510.441798
siesta: Ena     =       449.532726
siesta: Ekin    =       288.938730
siesta: Enl     =       148.596931
siesta: DEna    =         0.000001
siesta: DUscf   =         0.000000
siesta: DUext   =         0.000000
siesta: Exc     =      -267.579655
siesta: eta*DQ  =         0.000000
siesta: Emadel  =         0.000000
siesta: Emeta   =         0.000000
siesta: Emolmec =         0.000000
siesta: Ekinion =         0.000000
siesta: Eharris =      -856.005356
siesta: Etot    =      -890.953066
siesta: FreeEng =      -890.953066

siesta: iscf   Eharris(eV)      E_KS(eV)   FreeEng(eV)   dDmax  Ef(eV)
siesta:    1     -856.0054     -890.9531     -890.9531  1.6659 -6.1571
timer: Routine,Calls,Time,% = IterSCF        1      41.136  97.77
elaps: Routine,Calls,Wall,% = IterSCF        1      42.033  97.60
siesta:    2     -855.5066     -854.9041     -854.9057  0.2422 -5.8866
siesta:    3     -855.2290     -858.9212     -858.9233  0.1809 -5.9832
siesta:    4     -855.2239     -855.6490     -855.6507  0.0270 -5.9811
siesta:    5     -855.2229     -855.1719     -855.1736  0.0061 -5.9813
siesta:    6     -855.2228     -855.2588     -855.2604  0.0040 -5.9834
siesta:    7     -855.2227     -855.2598     -855.2614  0.0031 -5.9840
siesta:    8     -855.2228     -855.2439     -855.2455  0.0015 -5.9842
siesta:    9     -855.2228     -855.2321     -855.2337  0.0006 -5.9841

siesta: E_KS(eV) =             -855.2234

siesta: E_KS - E_eggbox =      -855.2234

siesta: Atomic forces (eV/Ang):
----------------------------------------
   Tot    0.001300    0.001302    0.001295
----------------------------------------
   Max    4.565905
   Res    3.051485    sqrt( Sum f_i^2 / 3N )
----------------------------------------
   Max    4.565905    constrained

Stress-tensor-Voigt (kbar):     -382.64     -382.64     -382.64      125.87      125.87      125.87
(Free)E + p*V (eV/cell)     -824.4673
Target enthalpy (eV/cell)     -855.2250

siesta: Stress tensor (static) (eV/Ang**3):
        -0.238825    0.078562    0.078562
         0.078562   -0.238825    0.078562
         0.078562    0.078562   -0.238825

siesta: Pressure (static):        382.64333861  kBar

siesta: Stress tensor (total) (eV/Ang**3):
        -0.238825    0.078562    0.078562
         0.078562   -0.238825    0.078562
         0.078562    0.078562   -0.238825

siesta: Pressure (total):        382.64333861  kBar

mulliken: Mulliken Atomic and Orbital Populations:

Species: Si                  
Atom  Qatom  Qorb
               3s      3s      3py     3pz     3px     3py     3pz     3px     
               3Pdxy   3Pdyz   3Pdz2   3Pdxz   3Pdx2-y2
   1  4.309   0.221   0.832   0.077   0.077   0.077   0.707   0.707   0.707
              0.191   0.191   0.165   0.191   0.165
   2  3.838   0.651   0.586   0.065   0.065   0.065   0.608   0.608   0.608
              0.139   0.139   0.083   0.139   0.083
   3  3.904   0.522   0.643  -0.000   0.106  -0.000   0.676   0.618   0.676
              0.163   0.148   0.089   0.148   0.115
   4  4.047   0.384   0.719   0.065  -0.050   0.065   0.682   0.744   0.682
              0.163   0.168   0.150   0.168   0.107
   5  3.904   0.522   0.643   0.106  -0.000  -0.000   0.618   0.676   0.676
              0.148   0.148   0.108   0.163   0.095
   6  4.047   0.384   0.719  -0.050   0.065   0.065   0.744   0.682   0.682
              0.168   0.168   0.118   0.163   0.139
   7  3.904   0.522   0.643  -0.000  -0.000   0.106   0.676   0.676   0.618
              0.148   0.163   0.108   0.148   0.095
   8  4.047   0.384   0.719   0.065   0.065  -0.050   0.682   0.682   0.744
              0.168   0.163   0.118   0.168   0.139

mulliken: Qtot =       32.000

cgvc: No target stress found, assuming hydrostatic MD.TargetPressure.

cgvc: Target stress (kBar)
cgvc:        -0.000       0.000       0.000
cgvc:         0.000      -0.000       0.000
cgvc:         0.000       0.000      -0.000

* Maximum dynamic memory allocated =    84 MB

siesta:                 ==============================
                            Begin CG move =      1
                        ==============================

outcoor: Atomic coordinates (Ang):                          
    0.01818601    0.01818601    0.01818596   1       1  Si
    1.36635915    1.36635916    1.36635919   1       2  Si
    2.72932845    2.72932843    0.00540708   1       3  Si
    4.06993654    4.06993656    1.37042269   1       4  Si
    2.72932838    0.00540709    2.72932842   1       5  Si
    4.06993658    1.37042264    4.06993650   1       6  Si
    0.00540708    2.72932835    2.72932843   1       7  Si
    1.37042260    4.06993658    4.06993652   1       8  Si
 Kpoints in:  256 . Kpoints trimmed:  256

siesta: k-grid: Number of k-points =   256
siesta: k-grid: Cutoff (effective) =    20.341 Ang
siesta: k-grid: Supercell and displacements
siesta: k-grid:    0   0   8      0.500
siesta: k-grid:    8   0   0      0.500
siesta: k-grid:    0   8   0      0.500
Naive supercell factors:     5    5    5

superc: Internal auxiliary supercell:     5 x     5 x     5  =     125
superc: Number of atoms, orbitals, and projectors:   1000  13000  16000

outcell: Unit cell vectors (Ang):
        5.085184   -0.011574   -0.011574
       -0.011574    5.085184   -0.011574
       -0.011574   -0.011574    5.085184

outcell: Cell vector modules (Ang)   :    5.085210    5.085210    5.085210
outcell: Cell angles (23,13,12) (deg):     90.2605     90.2605     90.2605
outcell: Cell volume (Ang**3)        :    131.4962
New_DM. Step:     2
Re-using DM from previous geometry...
Re-using DM without extrapolation (not allowed)
Density Matrix sparsity pattern changed.

InitMesh: MESH =    32 x    32 x    32 =       32768
InitMesh: Mesh cutoff (required, used) =   100.000   109.446 Ry

siesta: iscf   Eharris(eV)      E_KS(eV)   FreeEng(eV)   dDmax  Ef(eV)
siesta:    1     -857.0630     -855.7185     -855.7201  0.0780 -5.8732
siesta:    2     -857.0812     -857.0425     -857.0439  0.0249 -5.8384
siesta:    3     -857.0556     -857.0151     -857.0164  0.0020 -5.8582
siesta:    4     -857.0554     -857.0366     -857.0379  0.0008 -5.8604

siesta: E_KS(eV) =             -857.0559

siesta: Atomic forces (eV/Ang):
----------------------------------------
   Tot    0.007030    0.007034    0.007009
----------------------------------------
   Max    3.451712
   Res    2.360670    sqrt( Sum f_i^2 / 3N )
----------------------------------------
   Max    3.451712    constrained

Stress-tensor-Voigt (kbar):     -321.13     -321.13     -321.13       90.08       90.08       90.08
(Free)E + p*V (eV/cell)     -830.7009
Target enthalpy (eV/cell)     -857.0572

siesta: Stress tensor (static) (eV/Ang**3):
        -0.200434    0.056221    0.056221
         0.056221   -0.200434    0.056221
         0.056221    0.056221   -0.200434

siesta: Pressure (static):        321.13367584  kBar

siesta: Stress tensor (total) (eV/Ang**3):
        -0.200434    0.056221    0.056221
         0.056221   -0.200434    0.056221
         0.056221    0.056221   -0.200434

siesta: Pressure (total):        321.13367584  kBar

mulliken: Mulliken Atomic and Orbital Populations:

Species: Si                  
Atom  Qatom  Qorb
               3s      3s      3py     3pz     3px     3py     3pz     3px     
               3Pdxy   3Pdyz   3Pdz2   3Pdxz   3Pdx2-y2
   1  4.201   0.277   0.786   0.054   0.054   0.054   0.713   0.713   0.713
              0.182   0.182   0.146   0.182   0.146
   2  3.872   0.651   0.582   0.087   0.087   0.087   0.602   0.602   0.602
              0.137   0.137   0.082   0.137   0.082
   3  3.932   0.526   0.638   0.029   0.118   0.029   0.664   0.614   0.664
              0.159   0.147   0.089   0.147   0.111
   4  4.043   0.406   0.703   0.081  -0.041   0.081   0.668   0.740   0.668
              0.160   0.167   0.140   0.167   0.103
   5  3.932   0.526   0.638   0.118   0.029   0.029   0.614   0.664   0.664
              0.147   0.147   0.105   0.159   0.094
   6  4.043   0.406   0.703  -0.041   0.081   0.081   0.740   0.668   0.668
              0.167   0.167   0.112   0.160   0.131
   7  3.932   0.526   0.638   0.029   0.029   0.118   0.664   0.664   0.614
              0.147   0.159   0.105   0.147   0.094
   8  4.043   0.406   0.703   0.081   0.081  -0.041   0.668   0.668   0.740
              0.167   0.160   0.112   0.167   0.131

mulliken: Qtot =       32.000

* Maximum dynamic memory allocated =    97 MB

siesta:                 ==============================
                            Begin CG move =      2
                        ==============================

outcoor: Atomic coordinates (Ang):                          
    0.04746351    0.04746351    0.04746337   1       1  Si
    1.37656463    1.37656465    1.37656474   1       2  Si
    2.74402007    2.74402002    0.01463599   1       3  Si
    4.05314721    4.05314725    1.38815417   1       4  Si
    2.74401989    0.01463601    2.74402000   1       5  Si
    4.05314732    1.38815403    4.05314710   1       6  Si
    0.01463599    2.74401981    2.74402002   1       7  Si
    1.38815392    4.05314732    4.05314715   1       8  Si
 Kpoints in:  256 . Kpoints trimmed:  256

siesta: k-grid: Number of k-points =   256
siesta: k-grid: Cutoff (effective) =    20.567 Ang
siesta: k-grid: Supercell and displacements
siesta: k-grid:    0   0   8      0.500
siesta: k-grid:    8   0   0      0.500
siesta: k-grid:    0   8   0      0.500
Naive supercell factors:     5    5    5

superc: Internal auxiliary supercell:     5 x     5 x     5  =     125
superc: Number of atoms, orbitals, and projectors:   1000  13000  16000

outcell: Unit cell vectors (Ang):
        5.141478   -0.030092   -0.030092
       -0.030092    5.141478   -0.030092
       -0.030092   -0.030092    5.141478

outcell: Cell vector modules (Ang)   :    5.141654    5.141654    5.141654
outcell: Cell angles (23,13,12) (deg):     90.6687     90.6687     90.6687
outcell: Cell volume (Ang**3)        :    135.8999
New_DM. Step:     3
Re-using DM from previous geometry...
Re-using DM without extrapolation (not allowed)
Density Matrix sparsity pattern changed.

InitMesh: MESH =    32 x    32 x    32 =       32768
InitMesh: Mesh cutoff (required, used) =   100.000   107.082 Ry

siesta: iscf   Eharris(eV)      E_KS(eV)   FreeEng(eV)   dDmax  Ef(eV)
siesta:    1     -859.2080     -857.2340     -857.2353  0.0954 -5.7680
siesta:    2     -859.2995     -859.1119     -859.1135  0.0574 -5.7072
siesta:    3     -859.1755     -859.0061     -859.0078  0.0103 -5.7389
siesta:    4     -859.1746     -859.1389     -859.1406  0.0015 -5.7425
siesta:    5     -859.1746     -859.1541     -859.1557  0.0008 -5.7428

siesta: E_KS(eV) =             -859.1705

siesta: Atomic forces (eV/Ang):
----------------------------------------
   Tot   -0.004257   -0.004260   -0.004244
----------------------------------------
   Max    2.486366
   Res    1.508100    sqrt( Sum f_i^2 / 3N )
----------------------------------------
   Max    2.486366    constrained

Stress-tensor-Voigt (kbar):     -239.20     -239.20     -239.20       42.49       42.49       42.49
(Free)E + p*V (eV/cell)     -838.8826
Target enthalpy (eV/cell)     -859.1722

siesta: Stress tensor (static) (eV/Ang**3):
        -0.149298    0.026519    0.026519
         0.026519   -0.149298    0.026519
         0.026519    0.026519   -0.149298

siesta: Pressure (static):        239.20386081  kBar

siesta: Stress tensor (total) (eV/Ang**3):
        -0.149298    0.026519    0.026519
         0.026519   -0.149298    0.026519
         0.026519    0.026519   -0.149298

siesta: Pressure (total):        239.20386081  kBar

mulliken: Mulliken Atomic and Orbital Populations:

Species: Si                  
Atom  Qatom  Qorb
               3s      3s      3py     3pz     3px     3py     3pz     3px     
               3Pdxy   3Pdyz   3Pdz2   3Pdxz   3Pdx2-y2
   1  4.080   0.383   0.714   0.050   0.050   0.050   0.697   0.697   0.697
              0.167   0.167   0.120   0.167   0.120
   2  3.915   0.651   0.573   0.113   0.113   0.113   0.596   0.596   0.596
              0.134   0.134   0.081   0.134   0.081
   3  3.970   0.540   0.625   0.068   0.121   0.068   0.648   0.617   0.648
              0.153   0.145   0.089   0.145   0.103
   4  4.031   0.449   0.675   0.099  -0.019   0.099   0.653   0.723   0.653
              0.154   0.162   0.124   0.162   0.097
   5  3.970   0.540   0.625   0.121   0.068   0.068   0.617   0.648   0.648
              0.145   0.145   0.099   0.153   0.093
   6  4.031   0.449   0.675  -0.019   0.099   0.099   0.723   0.653   0.653
              0.162   0.162   0.104   0.154   0.118
   7  3.970   0.540   0.625   0.068   0.068   0.121   0.648   0.648   0.617
              0.145   0.153   0.099   0.145   0.093
   8  4.031   0.449   0.675   0.099   0.099  -0.019   0.653   0.653   0.723
              0.162   0.154   0.104   0.162   0.118

mulliken: Qtot =       32.000

* Maximum dynamic memory allocated =    97 MB

siesta:                 ==============================
                            Begin CG move =      3
                        ==============================

outcoor: Atomic coordinates (Ang):                          
    0.09476803    0.09476801    0.09476774   1       1  Si
    1.39297233    1.39297238    1.39297256   1       2  Si
    2.76692787    2.76692778    0.03088085   1       3  Si
    4.02452351    4.02452359    1.41922576   1       4  Si
    2.76692751    0.03088090    2.76692773   1       5  Si
    4.02452373    1.41922550    4.02452330   1       6  Si
    0.03088086    2.76692734    2.76692777   1       7  Si
    1.41922527    4.02452373    4.02452340   1       8  Si
 Kpoints in:  256 . Kpoints trimmed:  256

siesta: k-grid: Number of k-points =   256
siesta: k-grid: Cutoff (effective) =    20.929 Ang
siesta: k-grid: Supercell and displacements
siesta: k-grid:    0   0   8      0.500
siesta: k-grid:    8   0   0      0.500
siesta: k-grid:    0   8   0      0.500
Naive supercell factors:     5    5    5

superc: Internal auxiliary supercell:     5 x     5 x     5  =     125
superc: Number of atoms, orbitals, and projectors:   1000  13000  16000

outcell: Unit cell vectors (Ang):
        5.231549   -0.059721   -0.059721
       -0.059721    5.231549   -0.059721
       -0.059721   -0.059721    5.231549

outcell: Cell vector modules (Ang)   :    5.232231    5.232231    5.232231
outcell: Cell angles (23,13,12) (deg):     91.3004     91.3004     91.3004
outcell: Cell volume (Ang**3)        :    143.1264
New_DM. Step:     4
Re-using DM from previous geometry...
Re-using DM without extrapolation (not allowed)
Density Matrix sparsity pattern changed.

InitMesh: MESH =    32 x    32 x    32 =       32768
InitMesh: Mesh cutoff (required, used) =   100.000   103.487 Ry

siesta: iscf   Eharris(eV)      E_KS(eV)   FreeEng(eV)   dDmax  Ef(eV)
siesta:    1     -861.0279     -858.3542     -858.3558  0.0840 -5.7219
siesta:    2     -861.4719     -860.5678     -860.5682  0.1100 -5.7066
siesta:    3     -860.8753     -860.2779     -860.2783  0.0296 -5.6998
siesta:    4     -860.8725     -860.7656     -860.7661  0.0032 -5.7020
siesta:    5     -860.8726     -860.7997     -860.8001  0.0020 -5.7016
siesta:    6     -860.8725     -860.8557     -860.8561  0.0005 -5.7009

siesta: E_KS(eV) =             -860.8650

siesta: Atomic forces (eV/Ang):
----------------------------------------
   Tot   -0.001937   -0.001931   -0.001926
----------------------------------------
   Max    1.536559
   Res    0.766674    sqrt( Sum f_i^2 / 3N )
----------------------------------------
   Max    1.536559    constrained

Stress-tensor-Voigt (kbar):     -144.93     -144.93     -144.93      -12.69      -12.69      -12.69
(Free)E + p*V (eV/cell)     -847.9190
Target enthalpy (eV/cell)     -860.8655

siesta: Stress tensor (static) (eV/Ang**3):
        -0.090455   -0.007922   -0.007922
        -0.007922   -0.090455   -0.007922
        -0.007922   -0.007922   -0.090455

siesta: Pressure (static):        144.92604107  kBar

siesta: Stress tensor (total) (eV/Ang**3):
        -0.090455   -0.007922   -0.007922
        -0.007922   -0.090455   -0.007922
        -0.007922   -0.007922   -0.090455

siesta: Pressure (total):        144.92604107  kBar

mulliken: Mulliken Atomic and Orbital Populations:

Species: Si                  
Atom  Qatom  Qorb
               3s      3s      3py     3pz     3px     3py     3pz     3px     
               3Pdxy   3Pdyz   3Pdz2   3Pdxz   3Pdx2-y2
   1  3.993   0.540   0.625   0.111   0.111   0.111   0.625   0.625   0.625
              0.144   0.144   0.093   0.144   0.093
   2  3.969   0.639   0.575   0.151   0.151   0.151   0.581   0.581   0.581
              0.133   0.133   0.080   0.133   0.080
   3  4.001   0.545   0.620   0.124   0.117   0.124   0.616   0.623   0.616
              0.144   0.144   0.092   0.144   0.092
   4  4.012   0.510   0.640   0.133   0.055   0.133   0.618   0.666   0.618
              0.145   0.150   0.104   0.150   0.090
   5  4.001   0.545   0.620   0.117   0.124   0.124   0.623   0.616   0.616
              0.144   0.144   0.092   0.144   0.092
   6  4.012   0.510   0.640   0.055   0.133   0.133   0.666   0.618   0.618
              0.150   0.150   0.094   0.145   0.101
   7  4.001   0.545   0.620   0.124   0.124   0.117   0.616   0.616   0.623
              0.144   0.144   0.092   0.144   0.092
   8  4.012   0.510   0.640   0.133   0.133   0.055   0.618   0.618   0.666
              0.150   0.145   0.094   0.150   0.101

mulliken: Qtot =       32.000

* Maximum dynamic memory allocated =    97 MB

siesta:                 ==============================
                            Begin CG move =      4
                        ==============================

outcoor: Atomic coordinates (Ang):                          
    0.15164315    0.15164313    0.15164269   1       1  Si
    1.41257062    1.41257070    1.41257098   1       2  Si
    2.79315791    2.79315777    0.05252121   1       3  Si
    3.98774169    3.98774181    1.46041466   1       4  Si
    2.79315733    0.05252129    2.79315769   1       5  Si
    3.98774205    1.46041424    3.98774133   1       6  Si
    0.05252122    2.79315706    2.79315776   1       7  Si
    1.46041387    3.98774204    3.98774150   1       8  Si
 Kpoints in:  196 . Kpoints trimmed:  172

siesta: k-grid: Number of k-points =   172
siesta: k-grid: Cutoff (effective) =    18.690 Ang
siesta: k-grid: Supercell and displacements
siesta: k-grid:    0   0   7      0.000
siesta: k-grid:    7   0   0      0.000
siesta: k-grid:    0   7   0      0.000
Naive supercell factors:     5    5    5

superc: Internal auxiliary supercell:     5 x     5 x     5  =     125
superc: Number of atoms, orbitals, and projectors:   1000  13000  16000

outcell: Unit cell vectors (Ang):
        5.338443   -0.094884   -0.094884
       -0.094884    5.338443   -0.094884
       -0.094884   -0.094884    5.338443

outcell: Cell vector modules (Ang)   :    5.340129    5.340129    5.340129
outcell: Cell angles (23,13,12) (deg):     92.0178     92.0178     92.0178
outcell: Cell volume (Ang**3)        :    151.9943
New_DM. Step:     5
Re-using DM from previous geometry...
Re-using DM without extrapolation (not allowed)
Density Matrix sparsity pattern changed.

InitMesh: MESH =    36 x    36 x    36 =       46656
InitMesh: Mesh cutoff (required, used) =   100.000   125.928 Ry

siesta: iscf   Eharris(eV)      E_KS(eV)   FreeEng(eV)   dDmax  Ef(eV)
siesta:    1     -861.2011     -858.9034     -858.9039  0.0739 -5.5999
siesta:    2     -862.2613     -860.1595     -860.1598  0.1181 -5.6603
siesta:    3     -860.8533     -860.0244     -860.0259  0.0380 -5.6039
siesta:    4     -860.8525     -860.6283     -860.6287  0.0046 -5.6101
siesta:    5     -860.8522     -860.7205     -860.7208  0.0025 -5.6095
siesta:    6     -860.8522     -860.8046     -860.8050  0.0007 -5.6077

siesta: E_KS(eV) =             -860.8251

siesta: Atomic forces (eV/Ang):
----------------------------------------
   Tot   -0.005924   -0.005926   -0.005919
----------------------------------------
   Max    1.699788
   Res    1.194971    sqrt( Sum f_i^2 / 3N )
----------------------------------------
   Max    1.699788    constrained

Stress-tensor-Voigt (kbar):      -78.42      -78.42      -78.42      -58.75      -58.75      -58.75
(Free)E + p*V (eV/cell)     -853.3861
Target enthalpy (eV/cell)     -860.8255

siesta: Stress tensor (static) (eV/Ang**3):
        -0.048945   -0.036668   -0.036668
        -0.036668   -0.048945   -0.036668
        -0.036668   -0.036668   -0.048945

siesta: Pressure (static):         78.41921306  kBar

siesta: Stress tensor (total) (eV/Ang**3):
        -0.048945   -0.036668   -0.036668
        -0.036668   -0.048945   -0.036668
        -0.036668   -0.036668   -0.048945

siesta: Pressure (total):         78.41921306  kBar

mulliken: Mulliken Atomic and Orbital Populations:

Species: Si                  
Atom  Qatom  Qorb
               3s      3s      3py     3pz     3px     3py     3pz     3px     
               3Pdxy   3Pdyz   3Pdz2   3Pdxz   3Pdx2-y2
   1  4.006   0.703   0.546   0.234   0.234   0.234   0.517   0.517   0.517
              0.120   0.120   0.072   0.120   0.072
   2  4.000   0.603   0.593   0.173   0.173   0.173   0.573   0.573   0.573
              0.134   0.134   0.082   0.134   0.082
   3  4.001   0.537   0.625   0.180   0.082   0.180   0.578   0.640   0.578
              0.136   0.142   0.100   0.142   0.081
   4  3.997   0.575   0.606   0.170   0.147   0.170   0.580   0.594   0.580
              0.134   0.135   0.088   0.135   0.084
   5  4.001   0.537   0.625   0.082   0.180   0.180   0.640   0.578   0.578
              0.142   0.142   0.086   0.136   0.095
   6  3.997   0.575   0.606   0.147   0.170   0.170   0.594   0.580   0.580
              0.135   0.135   0.085   0.134   0.087
   7  4.001   0.537   0.625   0.180   0.180   0.082   0.578   0.578   0.640
              0.142   0.136   0.086   0.142   0.095
   8  3.997   0.575   0.606   0.170   0.170   0.147   0.580   0.580   0.594
              0.135   0.134   0.085   0.135   0.087

mulliken: Qtot =       32.000

* Maximum dynamic memory allocated =    97 MB

siesta:                 ==============================
                            Begin CG move =      5
                        ==============================

outcoor: Atomic coordinates (Ang):                          
    0.12710447    0.12710446    0.12710409   1       1  Si
    1.40413191    1.40413197    1.40413221   1       2  Si
    2.78201330    2.78201318    0.04290767   1       3  Si
    4.00392188    4.00392198    1.44214087   1       4  Si
    2.78201282    0.04290774    2.78201311   1       5  Si
    4.00392218    1.44214052    4.00392158   1       6  Si
    0.04290768    2.78201258    2.78201317   1       7  Si
    1.44214021    4.00392217    4.00392172   1       8  Si
 Kpoints in:  196 . Kpoints trimmed:  172

siesta: k-grid: Number of k-points =   172
siesta: k-grid: Cutoff (effective) =    18.528 Ang
siesta: k-grid: Supercell and displacements
siesta: k-grid:    0   0   7      0.000
siesta: k-grid:    7   0   0      0.000
siesta: k-grid:    0   7   0      0.000
Naive supercell factors:     5    5    5

superc: Internal auxiliary supercell:     5 x     5 x     5  =     125
superc: Number of atoms, orbitals, and projectors:   1000  13000  16000

outcell: Unit cell vectors (Ang):
        5.292508   -0.079774   -0.079774
       -0.079774    5.292508   -0.079773
       -0.079774   -0.079773    5.292508

outcell: Cell vector modules (Ang)   :    5.293710    5.293710    5.293710
outcell: Cell angles (23,13,12) (deg):     91.7137     91.7137     91.7137
outcell: Cell volume (Ang**3)        :    148.1445
New_DM. Step:     6
Re-using DM from previous geometry...
Re-using DM without extrapolation (not allowed)
Density Matrix sparsity pattern changed.

InitMesh: MESH =    32 x    32 x    32 =       32768
InitMesh: Mesh cutoff (required, used) =   100.000   101.177 Ry

siesta: iscf   Eharris(eV)      E_KS(eV)   FreeEng(eV)   dDmax  Ef(eV)
siesta:    1     -861.1481     -861.6458     -861.6462  0.0280 -5.7206
siesta:    2     -861.3186     -860.9705     -860.9707  0.0626 -5.6785
siesta:    3     -861.0881     -861.1989     -861.1990  0.0139 -5.6981
siesta:    4     -861.0876     -861.0578     -861.0580  0.0021 -5.6961
siesta:    5     -861.0876     -861.0651     -861.0653  0.0015 -5.6965
siesta:    6     -861.0876     -861.0814     -861.0816  0.0002 -5.6970

siesta: E_KS(eV) =             -861.0845

siesta: Atomic forces (eV/Ang):
----------------------------------------
   Tot    0.002417    0.002432    0.002424
----------------------------------------
   Max    1.033939
   Res    0.894640    sqrt( Sum f_i^2 / 3N )
----------------------------------------
   Max    1.033939    constrained

Stress-tensor-Voigt (kbar):     -102.16     -102.16     -102.16      -41.05      -41.05      -41.05
(Free)E + p*V (eV/cell)     -851.6384
Target enthalpy (eV/cell)     -861.0847

siesta: Stress tensor (static) (eV/Ang**3):
        -0.063763   -0.025624   -0.025624
        -0.025624   -0.063764   -0.025624
        -0.025624   -0.025624   -0.063764

siesta: Pressure (static):        102.16177633  kBar

siesta: Stress tensor (total) (eV/Ang**3):
        -0.063763   -0.025624   -0.025624
        -0.025624   -0.063764   -0.025624
        -0.025624   -0.025624   -0.063764

siesta: Pressure (total):        102.16177633  kBar

mulliken: Mulliken Atomic and Orbital Populations:

Species: Si                  
Atom  Qatom  Qorb
               3s      3s      3py     3pz     3px     3py     3pz     3px     
               3Pdxy   3Pdyz   3Pdz2   3Pdxz   3Pdx2-y2
   1  3.985   0.633   0.578   0.174   0.174   0.174   0.567   0.567   0.567
              0.130   0.130   0.080   0.130   0.080
   2  3.989   0.620   0.583   0.168   0.168   0.168   0.574   0.574   0.574
              0.133   0.133   0.081   0.133   0.081
   3  4.005   0.544   0.621   0.157   0.099   0.157   0.595   0.632   0.595
              0.140   0.143   0.096   0.143   0.086
   4  4.004   0.552   0.617   0.156   0.109   0.156   0.595   0.623   0.595
              0.139   0.141   0.094   0.141   0.086
   5  4.005   0.544   0.621   0.099   0.157   0.157   0.632   0.595   0.595
              0.143   0.143   0.088   0.140   0.093
   6  4.004   0.552   0.617   0.109   0.156   0.156   0.623   0.595   0.595
              0.141   0.141   0.088   0.139   0.092
   7  4.005   0.544   0.621   0.157   0.157   0.099   0.595   0.595   0.632
              0.143   0.140   0.088   0.143   0.093
   8  4.004   0.552   0.617   0.156   0.156   0.109   0.595   0.595   0.623
              0.141   0.139   0.088   0.141   0.092

mulliken: Qtot =       32.000

cgvc: Finished line minimization    1.  Mean atomic displacement =    0.1675

* Maximum dynamic memory allocated =   101 MB

siesta:                 ==============================
                            Begin CG move =      6
                        ==============================

outcoor: Atomic coordinates (Ang):                          
    0.11352295    0.11352309    0.11352250   1       1  Si
    1.48061765    1.48061769    1.48061781   1       2  Si
    2.80514905    2.80514944    0.12136886   1       3  Si
    4.13637403    4.13637466    1.48053005   1       4  Si
    2.80514925    0.12136956    2.80514943   1       5  Si
    4.13637349    1.48052997    4.13637469   1       6  Si
    0.12136961    2.80514952    2.80514957   1       7  Si
    1.48052889    4.13637396    4.13637453   1       8  Si
 Kpoints in:  196 . Kpoints trimmed:  172

siesta: k-grid: Number of k-points =   172
siesta: k-grid: Cutoff (effective) =    18.900 Ang
siesta: k-grid: Supercell and displacements
siesta: k-grid:    7   0   0      0.000
siesta: k-grid:    0   7   0      0.000
siesta: k-grid:    0   0   7      0.000
Naive supercell factors:     5    5    5

superc: Internal auxiliary supercell:     5 x     5 x     5  =     125
superc: Number of atoms, orbitals, and projectors:   1000  13000  16000

outcell: Unit cell vectors (Ang):
        5.399401   -0.057282   -0.057282
       -0.057282    5.399401   -0.057282
       -0.057282   -0.057282    5.399402

outcell: Cell vector modules (Ang)   :    5.400009    5.400009    5.400009
outcell: Cell angles (23,13,12) (deg):     91.2091     91.2091     91.2091
outcell: Cell volume (Ang**3)        :    157.3581
New_DM. Step:     7
Re-using DM from previous geometry...
Re-using DM without extrapolation (not allowed)
Density Matrix sparsity pattern changed.

InitMesh: MESH =    36 x    36 x    36 =       46656
InitMesh: Mesh cutoff (required, used) =   100.000   122.946 Ry

siesta: iscf   Eharris(eV)      E_KS(eV)   FreeEng(eV)   dDmax  Ef(eV)
siesta:    1     -861.8956     -859.6721     -859.6723  0.0682 -5.3803
siesta:    2     -862.1042     -861.6785     -861.6787  0.0893 -5.3759
siesta:    3     -861.8217     -861.4937     -861.4937  0.0121 -5.3767
siesta:    4     -861.8205     -861.7663     -861.7664  0.0026 -5.3797
siesta:    5     -861.8204     -861.7869     -861.7870  0.0015 -5.3796
siesta:    6     -861.8204     -861.8064     -861.8065  0.0003 -5.3791

siesta: E_KS(eV) =             -861.8111

siesta: Atomic forces (eV/Ang):
----------------------------------------
   Tot    0.001261    0.001258    0.001255
----------------------------------------
   Max    0.525732
   Res    0.320232    sqrt( Sum f_i^2 / 3N )
----------------------------------------
   Max    0.525732    constrained

Stress-tensor-Voigt (kbar):      -23.10      -23.10      -23.10      -11.82      -11.82      -11.82
(Free)E + p*V (eV/cell)     -859.5426
Target enthalpy (eV/cell)     -861.8112

siesta: Stress tensor (static) (eV/Ang**3):
        -0.014417   -0.007376   -0.007376
        -0.007376   -0.014417   -0.007376
        -0.007376   -0.007376   -0.014417

siesta: Pressure (static):         23.09818039  kBar

siesta: Stress tensor (total) (eV/Ang**3):
        -0.014417   -0.007376   -0.007376
        -0.007376   -0.014417   -0.007376
        -0.007376   -0.007376   -0.014417

siesta: Pressure (total):         23.09818039  kBar

mulliken: Mulliken Atomic and Orbital Populations:

Species: Si                  
Atom  Qatom  Qorb
               3s      3s      3py     3pz     3px     3py     3pz     3px     
               3Pdxy   3Pdyz   3Pdz2   3Pdxz   3Pdx2-y2
   1  3.994   0.670   0.556   0.226   0.226   0.226   0.526   0.526   0.526
              0.122   0.122   0.074   0.122   0.074
   2  4.006   0.605   0.587   0.196   0.196   0.196   0.558   0.558   0.558
              0.131   0.131   0.080   0.131   0.080
   3  4.002   0.603   0.589   0.204   0.171   0.204   0.552   0.574   0.552
              0.129   0.132   0.084   0.132   0.078
   4  3.997   0.624   0.578   0.200   0.203   0.200   0.551   0.549   0.551
              0.128   0.128   0.078   0.128   0.079
   5  4.002   0.603   0.589   0.171   0.204   0.204   0.574   0.552   0.552
              0.132   0.132   0.080   0.129   0.082
   6  3.997   0.624   0.578   0.203   0.200   0.200   0.549   0.551   0.551
              0.128   0.128   0.079   0.128   0.078
   7  4.002   0.603   0.589   0.204   0.204   0.171   0.552   0.552   0.574
              0.132   0.129   0.080   0.132   0.082
   8  3.997   0.624   0.578   0.200   0.200   0.203   0.551   0.551   0.549
              0.128   0.128   0.079   0.128   0.078

mulliken: Qtot =       32.000

* Maximum dynamic memory allocated =   101 MB

siesta:                 ==============================
                            Begin CG move =      7
                        ==============================

outcoor: Atomic coordinates (Ang):                          
    0.09894464    0.09894495    0.09894414   1       1  Si
    1.55911158    1.55911159    1.55911161   1       2  Si
    2.82648183    2.82648275    0.20106982   1       3  Si
    4.26983484    4.26983602    1.51826308   1       4  Si
    2.82648275    0.20107117    2.82648280   1       5  Si
    4.26983345    1.51826328    4.26983648   1       6  Si
    0.20107134    2.82648353    2.82648301   1       7  Si
    1.51826140    4.26983439    4.26983601   1       8  Si
 Kpoints in:  196 . Kpoints trimmed:  172

siesta: k-grid: Number of k-points =   172
siesta: k-grid: Cutoff (effective) =    19.273 Ang
siesta: k-grid: Supercell and displacements
siesta: k-grid:    7   0   0      0.000
siesta: k-grid:    0   7   0      0.000
siesta: k-grid:    0   0   7      0.000
Naive supercell factors:     5    5    5

superc: Internal auxiliary supercell:     5 x     5 x     5  =     125
superc: Number of atoms, orbitals, and projectors:   1000  13000  16000

outcell: Unit cell vectors (Ang):
        5.506294   -0.034790   -0.034790
       -0.034790    5.506295   -0.034790
       -0.034790   -0.034790    5.506295

outcell: Cell vector modules (Ang)   :    5.506514    5.506515    5.506515
outcell: Cell angles (23,13,12) (deg):     90.7217     90.7217     90.7217
outcell: Cell volume (Ang**3)        :    166.9268
New_DM. Step:     8
Re-using DM from previous geometry...
Re-using DM without extrapolation (not allowed)
Density Matrix sparsity pattern changed.

InitMesh: MESH =    36 x    36 x    36 =       46656
InitMesh: Mesh cutoff (required, used) =   100.000   118.166 Ry

siesta: iscf   Eharris(eV)      E_KS(eV)   FreeEng(eV)   dDmax  Ef(eV)
siesta:    1     -861.4664     -859.8551     -859.8552  0.0547 -5.1711
siesta:    2     -861.7258     -861.2082     -861.2087  0.1055 -5.2597
siesta:    3     -861.3781     -860.9989     -860.9995  0.0142 -5.2100
siesta:    4     -861.3776     -861.3130     -861.3134  0.0037 -5.2123
siesta:    5     -861.3774     -861.3396     -861.3401  0.0019 -5.2117
siesta:    6     -861.3774     -861.3607     -861.3611  0.0005 -5.2110

siesta: E_KS(eV) =             -861.3668

siesta: Atomic forces (eV/Ang):
----------------------------------------
   Tot    0.004151    0.004148    0.004151
----------------------------------------
   Max    1.381368
   Res    0.963957    sqrt( Sum f_i^2 / 3N )
----------------------------------------
   Max    1.381368    constrained

Stress-tensor-Voigt (kbar):       23.62       23.62       23.62        8.37        8.37        8.37
(Free)E + p*V (eV/cell)     -863.8277
Target enthalpy (eV/cell)     -861.3672

siesta: Stress tensor (static) (eV/Ang**3):
         0.014740    0.005227    0.005227
         0.005227    0.014740    0.005227
         0.005227    0.005227    0.014740

siesta: Pressure (static):        -23.61629347  kBar

siesta: Stress tensor (total) (eV/Ang**3):
         0.014740    0.005227    0.005227
         0.005227    0.014740    0.005227
         0.005227    0.005227    0.014740

siesta: Pressure (total):        -23.61629347  kBar

mulliken: Mulliken Atomic and Orbital Populations:

Species: Si                  
Atom  Qatom  Qorb
               3s      3s      3py     3pz     3px     3py     3pz     3px     
               3Pdxy   3Pdyz   3Pdz2   3Pdxz   3Pdx2-y2
   1  4.001   0.680   0.554   0.262   0.262   0.262   0.497   0.497   0.497
              0.117   0.117   0.070   0.117   0.070
   2  4.029   0.561   0.612   0.215   0.215   0.215   0.550   0.550   0.550
              0.131   0.131   0.084   0.131   0.084
   3  3.996   0.645   0.569   0.246   0.232   0.246   0.513   0.522   0.513
              0.120   0.121   0.075   0.121   0.072
   4  3.994   0.688   0.549   0.247   0.293   0.247   0.505   0.473   0.505
              0.121   0.114   0.067   0.114   0.072
   5  3.996   0.645   0.569   0.232   0.246   0.246   0.522   0.513   0.513
              0.121   0.121   0.073   0.120   0.075
   6  3.994   0.688   0.549   0.293   0.247   0.247   0.473   0.505   0.505
              0.114   0.114   0.071   0.121   0.068
   7  3.996   0.645   0.569   0.246   0.246   0.232   0.513   0.513   0.522
              0.121   0.120   0.073   0.121   0.075
   8  3.994   0.688   0.549   0.247   0.247   0.293   0.505   0.505   0.473
              0.114   0.121   0.071   0.114   0.068

mulliken: Qtot =       32.000

* Maximum dynamic memory allocated =   101 MB

siesta:                 ==============================
                            Begin CG move =      8
                        ==============================

outcoor: Atomic coordinates (Ang):                          
    0.11220982    0.11220998    0.11220937   1       1  Si
    1.48782950    1.48782954    1.48782966   1       2  Si
    2.80720807    2.80720852    0.12872531   1       3  Si
    4.14873755    4.14873824    1.48406524   1       4  Si
    2.80720834    0.12872607    2.80720851   1       5  Si
    4.14873694    1.48406519    4.14873830   1       6  Si
    0.12872614    2.80720866    2.80720866   1       7  Si
    1.48406403    4.14873745    4.14873811   1       8  Si
 Kpoints in:  196 . Kpoints trimmed:  172

siesta: k-grid: Number of k-points =   172
siesta: k-grid: Cutoff (effective) =    18.935 Ang
siesta: k-grid: Supercell and displacements
siesta: k-grid:    7   0   0      0.000
siesta: k-grid:    0   7   0      0.000
siesta: k-grid:    0   0   7      0.000
Naive supercell factors:     5    5    5

superc: Internal auxiliary supercell:     5 x     5 x     5  =     125
superc: Number of atoms, orbitals, and projectors:   1000  13000  16000

outcell: Unit cell vectors (Ang):
        5.409337   -0.055191   -0.055191
       -0.055191    5.409338   -0.055191
       -0.055191   -0.055191    5.409338

outcell: Cell vector modules (Ang)   :    5.409900    5.409901    5.409901
outcell: Cell angles (23,13,12) (deg):     91.1630     91.1630     91.1630
outcell: Cell volume (Ang**3)        :    158.2325
New_DM. Step:     9
Re-using DM from previous geometry...
Re-using DM without extrapolation (not allowed)
Density Matrix sparsity pattern changed.

InitMesh: MESH =    36 x    36 x    36 =       46656
InitMesh: Mesh cutoff (required, used) =   100.000   122.488 Ry

siesta: iscf   Eharris(eV)      E_KS(eV)   FreeEng(eV)   dDmax  Ef(eV)
siesta:    1     -861.8887     -863.0705     -863.0709  0.0469 -5.3549
siesta:    2     -862.0664     -861.7040     -861.7040  0.0794 -5.3704
siesta:    3     -861.8262     -861.9799     -861.9801  0.0123 -5.3504
siesta:    4     -861.8253     -861.7856     -861.7857  0.0034 -5.3467
siesta:    5     -861.8252     -861.7943     -861.7944  0.0021 -5.3468
siesta:    6     -861.8251     -861.8173     -861.8174  0.0004 -5.3472

siesta: E_KS(eV) =             -861.8224

siesta: Atomic forces (eV/Ang):
----------------------------------------
   Tot    0.004225    0.004230    0.004239
----------------------------------------
   Max    0.613949
   Res    0.352815    sqrt( Sum f_i^2 / 3N )
----------------------------------------
   Max    0.613949    constrained

Stress-tensor-Voigt (kbar):      -17.54      -17.54      -17.54       -9.57       -9.57       -9.57
(Free)E + p*V (eV/cell)     -860.0906
Target enthalpy (eV/cell)     -861.8225

siesta: Stress tensor (static) (eV/Ang**3):
        -0.010945   -0.005970   -0.005970
        -0.005970   -0.010945   -0.005970
        -0.005970   -0.005970   -0.010945

siesta: Pressure (static):         17.53617360  kBar

siesta: Stress tensor (total) (eV/Ang**3):
        -0.010945   -0.005970   -0.005970
        -0.005970   -0.010945   -0.005970
        -0.005970   -0.005970   -0.010945

siesta: Pressure (total):         17.53617360  kBar

mulliken: Mulliken Atomic and Orbital Populations:

Species: Si                  
Atom  Qatom  Qorb
               3s      3s      3py     3pz     3px     3py     3pz     3px     
               3Pdxy   3Pdyz   3Pdz2   3Pdxz   3Pdx2-y2
   1  3.996   0.672   0.554   0.230   0.230   0.230   0.523   0.523   0.523
              0.121   0.121   0.073   0.121   0.073
   2  4.007   0.602   0.588   0.198   0.198   0.198   0.557   0.557   0.557
              0.130   0.130   0.080   0.130   0.080
   3  4.002   0.608   0.586   0.208   0.176   0.208   0.549   0.569   0.549
              0.128   0.131   0.083   0.131   0.078
   4  3.997   0.630   0.575   0.205   0.212   0.205   0.547   0.542   0.547
              0.128   0.126   0.077   0.126   0.078
   5  4.002   0.608   0.586   0.176   0.208   0.208   0.569   0.549   0.549
              0.131   0.131   0.079   0.128   0.081
   6  3.997   0.630   0.575   0.212   0.205   0.205   0.542   0.547   0.547
              0.126   0.126   0.078   0.128   0.077
   7  4.002   0.608   0.586   0.208   0.208   0.176   0.549   0.549   0.569
              0.131   0.128   0.079   0.131   0.081
   8  3.997   0.630   0.575   0.205   0.205   0.212   0.547   0.547   0.542
              0.126   0.128   0.078   0.126   0.077

mulliken: Qtot =       32.000

cgvc: Finished line minimization    2.  Mean atomic displacement =    0.1831

* Maximum dynamic memory allocated =   101 MB

siesta:                 ==============================
                            Begin CG move =      9
                        ==============================

outcoor: Atomic coordinates (Ang):                          
    0.13891731    0.13891774    0.13891948   1       1  Si
    1.44581053    1.44581058    1.44581176   1       2  Si
    2.90686059    2.90686113    0.15088399   1       3  Si
    4.28467865    4.28467937    1.47330520   1       4  Si
    2.90686009    0.15088294    2.90686102   1       5  Si
    4.28467883    1.47330523    4.28467857   1       6  Si
    0.15088230    2.90686028    2.90686034   1       7  Si
    1.47330541    4.28467959    4.28467885   1       8  Si
 Kpoints in:  196 . Kpoints trimmed:  172

siesta: k-grid: Number of k-points =   172
siesta: k-grid: Cutoff (effective) =    19.211 Ang
siesta: k-grid: Supercell and displacements
siesta: k-grid:    7   0   0      0.000
siesta: k-grid:    0   7   0      0.000
siesta: k-grid:    0   0   7      0.000
Naive supercell factors:     5    5    5

superc: Internal auxiliary supercell:     5 x     5 x     5  =     125
superc: Number of atoms, orbitals, and projectors:   1000  13000  16000

outcell: Unit cell vectors (Ang):
        5.488750   -0.022707   -0.022707
       -0.022707    5.488750   -0.022707
       -0.022707   -0.022707    5.488750

outcell: Cell vector modules (Ang)   :    5.488844    5.488844    5.488844
outcell: Cell angles (23,13,12) (deg):     90.4731     90.4731     90.4731
outcell: Cell volume (Ang**3)        :    165.3476
New_DM. Step:    10
Re-using DM from previous geometry...
Re-using DM without extrapolation (not allowed)
Density Matrix sparsity pattern changed.

InitMesh: MESH =    36 x    36 x    36 =       46656
InitMesh: Mesh cutoff (required, used) =   100.000   118.906 Ry

siesta: iscf   Eharris(eV)      E_KS(eV)   FreeEng(eV)   dDmax  Ef(eV)
siesta:    1     -862.0147     -860.4168     -860.4169  0.0439 -5.2951
siesta:    2     -863.0159     -861.1067     -861.1067  0.2006 -5.3887
siesta:    3     -861.7159     -861.0463     -861.0463  0.0344 -5.3143
siesta:    4     -861.7159     -861.5387     -861.5387  0.0065 -5.3172
siesta:    5     -861.7156     -861.6219     -861.6219  0.0019 -5.3166
siesta:    6     -861.7155     -861.6676     -861.6676  0.0008 -5.3162

siesta: E_KS(eV) =             -861.6976

siesta: Atomic forces (eV/Ang):
----------------------------------------
   Tot   -0.002108   -0.002112   -0.002101
----------------------------------------
   Max    1.200729
   Res    0.601069    sqrt( Sum f_i^2 / 3N )
----------------------------------------
   Max    1.200729    constrained

Stress-tensor-Voigt (kbar):       18.63       18.63       18.63      -13.38      -13.38      -13.38
(Free)E + p*V (eV/cell)     -863.6201
Target enthalpy (eV/cell)     -861.6976

siesta: Stress tensor (static) (eV/Ang**3):
         0.011627   -0.008351   -0.008351
        -0.008351    0.011627   -0.008351
        -0.008351   -0.008351    0.011627

siesta: Pressure (static):        -18.62881069  kBar

siesta: Stress tensor (total) (eV/Ang**3):
         0.011627   -0.008351   -0.008351
        -0.008351    0.011627   -0.008351
        -0.008351   -0.008351    0.011627

siesta: Pressure (total):        -18.62881069  kBar

mulliken: Mulliken Atomic and Orbital Populations:

Species: Si                  
Atom  Qatom  Qorb
               3s      3s      3py     3pz     3px     3py     3pz     3px     
               3Pdxy   3Pdyz   3Pdz2   3Pdxz   3Pdx2-y2
   1  4.016   0.563   0.609   0.197   0.197   0.197   0.562   0.562   0.562
              0.133   0.133   0.084   0.133   0.084
   2  4.000   0.672   0.554   0.250   0.250   0.250   0.508   0.508   0.508
              0.118   0.118   0.071   0.118   0.071
   3  3.997   0.682   0.550   0.240   0.288   0.240   0.513   0.480   0.513
              0.122   0.115   0.066   0.115   0.074
   4  3.997   0.645   0.568   0.238   0.230   0.238   0.520   0.526   0.520
              0.121   0.122   0.075   0.122   0.073
   5  3.997   0.682   0.550   0.288   0.240   0.240   0.480   0.513   0.513
              0.115   0.115   0.072   0.122   0.068
   6  3.997   0.645   0.568   0.230   0.238   0.238   0.526   0.520   0.520
              0.122   0.122   0.073   0.121   0.074
   7  3.997   0.682   0.550   0.240   0.240   0.288   0.513   0.513   0.480
              0.115   0.122   0.072   0.115   0.068
   8  3.997   0.645   0.568   0.238   0.238   0.230   0.520   0.520   0.526
              0.122   0.121   0.073   0.122   0.074

mulliken: Qtot =       32.000

* Maximum dynamic memory allocated =   101 MB

siesta:                 ==============================
                            Begin CG move =     10
                        ==============================

outcoor: Atomic coordinates (Ang):                          
    0.12269757    0.12269783    0.12269816   1       1  Si
    1.47161737    1.47161741    1.47161795   1       2  Si
    2.84672676    2.84672725    0.13748797   1       3  Si
    4.20281262    4.20281332    1.47995919   1       4  Si
    2.84672673    0.13748801    2.84672721   1       5  Si
    4.20281232    1.47995917    4.20281304   1       6  Si
    0.13748780    2.84672700    2.84672702   1       7  Si
    1.47995854    4.20281293    4.20281304   1       8  Si
 Kpoints in:  196 . Kpoints trimmed:  172

siesta: k-grid: Number of k-points =   172
siesta: k-grid: Cutoff (effective) =    19.045 Ang
siesta: k-grid: Supercell and displacements
siesta: k-grid:    7   0   0      0.000
siesta: k-grid:    0   7   0      0.000
siesta: k-grid:    0   0   7      0.000
Naive supercell factors:     5    5    5

superc: Internal auxiliary supercell:     5 x     5 x     5  =     125
superc: Number of atoms, orbitals, and projectors:   1000  13000  16000

outcell: Unit cell vectors (Ang):
        5.440969   -0.042252   -0.042252
       -0.042252    5.440969   -0.042252
       -0.042252   -0.042252    5.440969

outcell: Cell vector modules (Ang)   :    5.441297    5.441297    5.441298
outcell: Cell angles (23,13,12) (deg):     90.8863     90.8863     90.8863
outcell: Cell volume (Ang**3)        :    161.0460
New_DM. Step:    11
Re-using DM from previous geometry...
Re-using DM without extrapolation (not allowed)
Density Matrix sparsity pattern changed.

InitMesh: MESH =    36 x    36 x    36 =       46656
InitMesh: Mesh cutoff (required, used) =   100.000   121.036 Ry

siesta: iscf   Eharris(eV)      E_KS(eV)   FreeEng(eV)   dDmax  Ef(eV)
siesta:    1     -862.0346     -862.4868     -862.4868  0.0243 -5.3500
siesta:    2     -862.3507     -861.7326     -861.7326  0.0960 -5.3489
siesta:    3     -861.9357     -862.0578     -862.0578  0.0178 -5.3386
siesta:    4     -861.9354     -861.8921     -861.8921  0.0019 -5.3331
siesta:    5     -861.9354     -861.9015     -861.9015  0.0013 -5.3337
siesta:    6     -861.9354     -861.9248     -861.9248  0.0003 -5.3348

siesta: E_KS(eV) =             -861.9308

siesta: Atomic forces (eV/Ang):
----------------------------------------
   Tot   -0.003822   -0.003818   -0.003842
----------------------------------------
   Max    0.120624
   Res    0.060647    sqrt( Sum f_i^2 / 3N )
----------------------------------------
   Max    0.120624    constrained

Stress-tensor-Voigt (kbar):       -0.45       -0.45       -0.45      -11.60      -11.60      -11.60
(Free)E + p*V (eV/cell)     -861.8854
Target enthalpy (eV/cell)     -861.9308

siesta: Stress tensor (static) (eV/Ang**3):
        -0.000282   -0.007238   -0.007238
        -0.007238   -0.000282   -0.007238
        -0.007238   -0.007238   -0.000282

siesta: Pressure (static):          0.45233618  kBar

siesta: Stress tensor (total) (eV/Ang**3):
        -0.000282   -0.007238   -0.007238
        -0.007238   -0.000282   -0.007238
        -0.007238   -0.007238   -0.000282

siesta: Pressure (total):          0.45233618  kBar

mulliken: Mulliken Atomic and Orbital Populations:

Species: Si                  
Atom  Qatom  Qorb
               3s      3s      3py     3pz     3px     3py     3pz     3px     
               3Pdxy   3Pdyz   3Pdz2   3Pdxz   3Pdx2-y2
   1  4.001   0.630   0.575   0.217   0.217   0.217   0.539   0.539   0.539
              0.125   0.125   0.077   0.125   0.077
   2  3.999   0.634   0.573   0.216   0.216   0.216   0.538   0.538   0.538
              0.126   0.126   0.076   0.126   0.076
   3  4.000   0.640   0.570   0.219   0.223   0.219   0.536   0.533   0.536
              0.125   0.125   0.075   0.125   0.076
   4  4.000   0.638   0.571   0.221   0.221   0.221   0.534   0.534   0.534
              0.125   0.124   0.076   0.124   0.076
   5  4.000   0.640   0.570   0.223   0.219   0.219   0.533   0.536   0.536
              0.125   0.125   0.076   0.125   0.075
   6  4.000   0.638   0.571   0.221   0.221   0.221   0.534   0.534   0.534
              0.124   0.124   0.076   0.125   0.076
   7  4.000   0.640   0.570   0.219   0.219   0.223   0.536   0.536   0.533
              0.125   0.125   0.076   0.125   0.075
   8  4.000   0.638   0.571   0.221   0.221   0.221   0.534   0.534   0.534
              0.124   0.125   0.076   0.124   0.076

mulliken: Qtot =       32.000

cgvc: Finished line minimization    3.  Mean atomic displacement =    0.0729

* Maximum dynamic memory allocated =   101 MB

siesta:                 ==============================
                            Begin CG move =     11
                        ==============================

outcoor: Atomic coordinates (Ang):                          
    0.13680235    0.13680246    0.13680103   1       1  Si
    1.51249996    1.51250061    1.51249616   1       2  Si
    2.89123222    2.89123267    0.16179049   1       3  Si
    4.25674849    4.25674865    1.56437242   1       4  Si
    2.89123348    0.16179136    2.89123448   1       5  Si
    4.25674904    1.56437316    4.25674954   1       6  Si
    0.16179080    2.89123487    2.89123513   1       7  Si
    1.56437388    4.25674907    4.25674880   1       8  Si
 Kpoints in:  196 . Kpoints trimmed:  172

siesta: k-grid: Number of k-points =   172
siesta: k-grid: Cutoff (effective) =    19.075 Ang
siesta: k-grid: Supercell and displacements
siesta: k-grid:    7   0   0      0.000
siesta: k-grid:    0   7   0      0.000
siesta: k-grid:    0   0   7      0.000
Naive supercell factors:     5    5    5

superc: Internal auxiliary supercell:     5 x     5 x     5  =     125
superc: Number of atoms, orbitals, and projectors:   1000  13000  16000

outcell: Unit cell vectors (Ang):
        5.450018    0.009142    0.009142
        0.009142    5.450018    0.009142
        0.009142    0.009142    5.450019

outcell: Cell vector modules (Ang)   :    5.450034    5.450034    5.450034
outcell: Cell angles (23,13,12) (deg):     89.8076     89.8076     89.8076
outcell: Cell volume (Ang**3)        :    161.8789
New_DM. Step:    12
Re-using DM from previous geometry...
Re-using DM without extrapolation (not allowed)
Density Matrix sparsity pattern changed.

InitMesh: MESH =    36 x    36 x    36 =       46656
InitMesh: Mesh cutoff (required, used) =   100.000   120.592 Ry

siesta: iscf   Eharris(eV)      E_KS(eV)   FreeEng(eV)   dDmax  Ef(eV)
siesta:    1     -861.9501     -861.7664     -861.7664  0.0199 -5.3261
siesta:    2     -861.9814     -861.9191     -861.9191  0.0257 -5.3289
siesta:    3     -861.9398     -861.9048     -861.9048  0.0039 -5.3293
siesta:    4     -861.9397     -861.9321     -861.9321  0.0004 -5.3296

siesta: E_KS(eV) =             -861.9344

siesta: Atomic forces (eV/Ang):
----------------------------------------
   Tot    0.004724    0.004727    0.004723
----------------------------------------
   Max    0.444430
   Res    0.229286    sqrt( Sum f_i^2 / 3N )
----------------------------------------
   Max    0.444430    constrained

Stress-tensor-Voigt (kbar):        3.55        3.55        3.55        7.41        7.41        7.41
(Free)E + p*V (eV/cell)     -862.2928
Target enthalpy (eV/cell)     -861.9344

siesta: Stress tensor (static) (eV/Ang**3):
         0.002213    0.004627    0.004627
         0.004627    0.002213    0.004628
         0.004627    0.004628    0.002214

siesta: Pressure (static):         -3.54647719  kBar

siesta: Stress tensor (total) (eV/Ang**3):
         0.002213    0.004627    0.004627
         0.004627    0.002213    0.004628
         0.004627    0.004628    0.002214

siesta: Pressure (total):         -3.54647719  kBar

mulliken: Mulliken Atomic and Orbital Populations:

Species: Si                  
Atom  Qatom  Qorb
               3s      3s      3py     3pz     3px     3py     3pz     3px     
               3Pdxy   3Pdyz   3Pdz2   3Pdxz   3Pdx2-y2
   1  3.999   0.650   0.564   0.228   0.228   0.228   0.528   0.528   0.528
              0.123   0.123   0.074   0.123   0.074
   2  3.999   0.660   0.559   0.233   0.233   0.233   0.523   0.523   0.523
              0.122   0.122   0.073   0.122   0.073
   3  4.000   0.638   0.570   0.224   0.220   0.224   0.532   0.535   0.532
              0.124   0.124   0.076   0.124   0.075
   4  4.000   0.635   0.571   0.224   0.210   0.224   0.533   0.543   0.533
              0.124   0.125   0.077   0.125   0.075
   5  4.000   0.638   0.570   0.220   0.224   0.224   0.535   0.532   0.532
              0.124   0.124   0.075   0.124   0.076
   6  4.000   0.635   0.571   0.210   0.224   0.224   0.543   0.533   0.533
              0.125   0.125   0.075   0.124   0.076
   7  4.000   0.638   0.570   0.224   0.224   0.220   0.532   0.532   0.535
              0.124   0.124   0.075   0.124   0.076
   8  4.000   0.635   0.571   0.224   0.224   0.210   0.533   0.533   0.543
              0.125   0.124   0.075   0.125   0.076

mulliken: Qtot =       32.000

* Maximum dynamic memory allocated =   101 MB

siesta:                 ==============================
                            Begin CG move =     12
                        ==============================

outcoor: Atomic coordinates (Ang):                          
    0.12960909    0.12960929    0.12960874   1       1  Si
    1.49176949    1.49176983    1.49176790   1       2  Si
    2.86876224    2.86876271    0.14945922   1       3  Si
    4.22948547    4.22948590    1.52171223   1       4  Si
    2.86876284    0.14945967    2.86876358   1       5  Si
    4.22948559    1.52171258    4.22948620   1       6  Si
    0.14945928    2.86876366    2.86876381   1       7  Si
    1.52171262    4.22948591    4.22948583   1       8  Si
 Kpoints in:  196 . Kpoints trimmed:  172

siesta: k-grid: Number of k-points =   172
siesta: k-grid: Cutoff (effective) =    19.059 Ang
siesta: k-grid: Supercell and displacements
siesta: k-grid:    7   0   0      0.000
siesta: k-grid:    0   7   0      0.000
siesta: k-grid:    0   0   7      0.000
Naive supercell factors:     5    5    5

superc: Internal auxiliary supercell:     5 x     5 x     5  =     125
superc: Number of atoms, orbitals, and projectors:   1000  13000  16000

outcell: Unit cell vectors (Ang):
        5.445441   -0.016853   -0.016853
       -0.016853    5.445441   -0.016853
       -0.016853   -0.016853    5.445442

outcell: Cell vector modules (Ang)   :    5.445493    5.445493    5.445494
outcell: Cell angles (23,13,12) (deg):     90.3541     90.3541     90.3541
outcell: Cell volume (Ang**3)        :    161.4681
New_DM. Step:    13
Re-using DM from previous geometry...
Re-using DM without extrapolation (not allowed)
Density Matrix sparsity pattern changed.

InitMesh: MESH =    36 x    36 x    36 =       46656
InitMesh: Mesh cutoff (required, used) =   100.000   120.800 Ry

siesta: iscf   Eharris(eV)      E_KS(eV)   FreeEng(eV)   dDmax  Ef(eV)
siesta:    1     -861.9602     -862.0170     -862.0170  0.0075 -5.3285
siesta:    2     -861.9680     -861.9524     -861.9524  0.0133 -5.3263
siesta:    3     -861.9576     -861.9641     -861.9641  0.0019 -5.3271
siesta:    4     -861.9575     -861.9556     -861.9556  0.0002 -5.3268

siesta: E_KS(eV) =             -861.9562

siesta: Atomic forces (eV/Ang):
----------------------------------------
   Tot   -0.001779   -0.001780   -0.001769
----------------------------------------
   Max    0.188491
   Res    0.107680    sqrt( Sum f_i^2 / 3N )
----------------------------------------
   Max    0.188491    constrained

Stress-tensor-Voigt (kbar):        1.94        1.94        1.94       -1.92       -1.92       -1.92
(Free)E + p*V (eV/cell)     -862.1518
Target enthalpy (eV/cell)     -861.9562

siesta: Stress tensor (static) (eV/Ang**3):
         0.001211   -0.001198   -0.001198
        -0.001198    0.001211   -0.001198
        -0.001198   -0.001198    0.001211

siesta: Pressure (static):         -1.94101928  kBar

siesta: Stress tensor (total) (eV/Ang**3):
         0.001211   -0.001198   -0.001198
        -0.001198    0.001211   -0.001198
        -0.001198   -0.001198    0.001211

siesta: Pressure (total):         -1.94101928  kBar

mulliken: Mulliken Atomic and Orbital Populations:

Species: Si                  
Atom  Qatom  Qorb
               3s      3s      3py     3pz     3px     3py     3pz     3px     
               3Pdxy   3Pdyz   3Pdz2   3Pdxz   3Pdx2-y2
   1  4.000   0.639   0.570   0.222   0.222   0.222   0.534   0.534   0.534
              0.124   0.124   0.075   0.124   0.075
   2  4.000   0.647   0.566   0.225   0.225   0.225   0.531   0.531   0.531
              0.124   0.124   0.075   0.124   0.075
   3  4.000   0.639   0.570   0.221   0.222   0.221   0.534   0.534   0.534
              0.124   0.124   0.075   0.124   0.075
   4  4.000   0.637   0.571   0.222   0.216   0.222   0.534   0.538   0.534
              0.124   0.125   0.076   0.125   0.075
   5  4.000   0.639   0.570   0.222   0.221   0.221   0.534   0.534   0.534
              0.124   0.124   0.075   0.124   0.075
   6  4.000   0.637   0.571   0.216   0.222   0.222   0.538   0.534   0.534
              0.125   0.125   0.076   0.124   0.076
   7  4.000   0.639   0.570   0.221   0.221   0.222   0.534   0.534   0.534
              0.124   0.124   0.075   0.124   0.075
   8  4.000   0.637   0.571   0.222   0.222   0.216   0.534   0.534   0.538
              0.125   0.124   0.076   0.125   0.076

mulliken: Qtot =       32.000

cgvc: Finished line minimization    4.  Mean atomic displacement =    0.0360

* Maximum dynamic memory allocated =   101 MB

siesta:                 ==============================
                            Begin CG move =     13
                        ==============================

outcoor: Atomic coordinates (Ang):                          
    0.14363025    0.14363029    0.14362927   1       1  Si
    1.50861979    1.50862041    1.50861924   1       2  Si
    2.88783627    2.88783664    0.17257502   1       3  Si
    4.24483650    4.24483687    1.54362349   1       4  Si
    2.88783682    0.17257697    2.88783641   1       5  Si
    4.24483651    1.54362367    4.24483713   1       6  Si
    0.17257644    2.88783736    2.88783691   1       7  Si
    1.54362420    4.24483666    4.24483678   1       8  Si
 Kpoints in:  196 . Kpoints trimmed:  172

siesta: k-grid: Number of k-points =   172
siesta: k-grid: Cutoff (effective) =    19.063 Ang
siesta: k-grid: Supercell and displacements
siesta: k-grid:    7   0   0      0.000
siesta: k-grid:    0   7   0      0.000
siesta: k-grid:    0   0   7      0.000
Naive supercell factors:     5    5    5

superc: Internal auxiliary supercell:     5 x     5 x     5  =     125
superc: Number of atoms, orbitals, and projectors:   1000  13000  16000

outcell: Unit cell vectors (Ang):
        5.446500    0.005081    0.005081
        0.005081    5.446500    0.005081
        0.005081    0.005081    5.446500

outcell: Cell vector modules (Ang)   :    5.446505    5.446505    5.446505
outcell: Cell angles (23,13,12) (deg):     89.8931     89.8930     89.8930
outcell: Cell volume (Ang**3)        :    161.5665
New_DM. Step:    14
Re-using DM from previous geometry...
Re-using DM without extrapolation (not allowed)
Density Matrix sparsity pattern changed.

InitMesh: MESH =    36 x    36 x    36 =       46656
InitMesh: Mesh cutoff (required, used) =   100.000   120.746 Ry

siesta: iscf   Eharris(eV)      E_KS(eV)   FreeEng(eV)   dDmax  Ef(eV)
siesta:    1     -861.9682     -861.9387     -861.9387  0.0194 -5.3634
siesta:    2     -861.9687     -861.9667     -861.9667  0.0050 -5.3613
siesta:    3     -861.9675     -861.9665     -861.9665  0.0005 -5.3618

siesta: E_KS(eV) =             -861.9671

siesta: Atomic forces (eV/Ang):
----------------------------------------
   Tot    0.001673    0.001908    0.001658
----------------------------------------
   Max    0.096632
   Res    0.056337    sqrt( Sum f_i^2 / 3N )
----------------------------------------
   Max    0.096632    constrained

Stress-tensor-Voigt (kbar):        2.55        2.55        2.55        0.99        0.99        0.99
(Free)E + p*V (eV/cell)     -862.2242
Target enthalpy (eV/cell)     -861.9671

siesta: Stress tensor (static) (eV/Ang**3):
         0.001593    0.000619    0.000617
         0.000619    0.001589    0.000619
         0.000617    0.000619    0.001592

siesta: Pressure (static):         -2.54938003  kBar

siesta: Stress tensor (total) (eV/Ang**3):
         0.001593    0.000619    0.000617
         0.000619    0.001589    0.000619
         0.000617    0.000619    0.001592

siesta: Pressure (total):         -2.54938003  kBar

mulliken: Mulliken Atomic and Orbital Populations:

Species: Si                  
Atom  Qatom  Qorb
               3s      3s      3py     3pz     3px     3py     3pz     3px     
               3Pdxy   3Pdyz   3Pdz2   3Pdxz   3Pdx2-y2
   1  3.999   0.646   0.566   0.225   0.225   0.225   0.531   0.531   0.531
              0.124   0.124   0.075   0.124   0.075
   2  4.000   0.648   0.565   0.226   0.226   0.226   0.530   0.530   0.530
              0.123   0.123   0.074   0.123   0.074
   3  4.000   0.638   0.570   0.223   0.218   0.223   0.534   0.536   0.534
              0.124   0.125   0.076   0.125   0.075
   4  4.000   0.638   0.570   0.222   0.217   0.222   0.534   0.538   0.534
              0.124   0.125   0.076   0.125   0.075
   5  4.000   0.638   0.570   0.218   0.223   0.223   0.536   0.534   0.534
              0.125   0.125   0.075   0.124   0.076
   6  4.000   0.638   0.570   0.217   0.222   0.222   0.538   0.534   0.534
              0.125   0.125   0.075   0.124   0.076
   7  4.000   0.638   0.570   0.223   0.223   0.218   0.534   0.534   0.536
              0.125   0.124   0.075   0.125   0.076
   8  4.000   0.638   0.570   0.222   0.222   0.217   0.534   0.534   0.538
              0.125   0.124   0.075   0.125   0.076

mulliken: Qtot =       32.000

* Maximum dynamic memory allocated =   101 MB

siesta:                 ==============================
                            Begin CG move =     14
                        ==============================

outcoor: Atomic coordinates (Ang):                          
    0.16650750    0.16650729    0.16650550   1       1  Si
    1.53573326    1.53573430    1.53573434   1       2  Si
    2.91846239    2.91846259    0.20976932   1       3  Si
    4.26903266    4.26903295    1.57837648   1       4  Si
    2.91846287    0.20977366    2.91846063   1       5  Si
    4.26903250    1.57837639    4.26903315   1       6  Si
    0.20977293    2.91846295    2.91846157   1       7  Si
    1.57837771    4.26903240    4.26903283   1       8  Si
 Kpoints in:  196 . Kpoints trimmed:  172

siesta: k-grid: Number of k-points =   172
siesta: k-grid: Cutoff (effective) =    19.070 Ang
siesta: k-grid: Supercell and displacements
siesta: k-grid:    0   7   0      0.000
siesta: k-grid:    7   0   0      0.000
siesta: k-grid:    0   0   7      0.000
Naive supercell factors:     5    5    5

superc: Internal auxiliary supercell:     5 x     5 x     5  =     125
superc: Number of atoms, orbitals, and projectors:   1000  13000  16000

outcell: Unit cell vectors (Ang):
        5.448195    0.040177    0.040176
        0.040177    5.448194    0.040176
        0.040176    0.040176    5.448195

outcell: Cell vector modules (Ang)   :    5.448491    5.448491    5.448491
outcell: Cell angles (23,13,12) (deg):     89.1519     89.1519     89.1519
outcell: Cell volume (Ang**3)        :    161.6916
New_DM. Step:    15
Re-using DM from previous geometry...
Re-using DM without extrapolation (not allowed)
Density Matrix sparsity pattern changed.

InitMesh: MESH =    36 x    36 x    36 =       46656
InitMesh: Mesh cutoff (required, used) =   100.000   120.710 Ry

siesta: iscf   Eharris(eV)      E_KS(eV)   FreeEng(eV)   dDmax  Ef(eV)
siesta:    1     -861.9342     -861.9263     -861.9263  0.0090 -5.3225
siesta:    2     -861.9370     -861.9290     -861.9290  0.0101 -5.3207
siesta:    3     -861.9320     -861.9299     -861.9299  0.0009 -5.3205

siesta: E_KS(eV) =             -861.9307

siesta: Atomic forces (eV/Ang):
[...]
         11.06  11.14  11.33  11.34  11.60  11.61  11.79  12.63  13.16  13.16
         14.26  14.32  14.32  14.95  15.51  15.51  15.54  16.61  16.89  17.00
         17.00  17.62  18.30  18.30  19.69  19.69  22.29  22.29  23.02  23.82
         23.94  23.95  24.60  24.64  25.18  26.37  29.65  30.16  39.02  43.33
         43.33  50.07  57.93  57.95  58.25  62.24  65.61  66.05  68.80  68.81
         73.23  86.47  91.21  91.22
 157  1 -16.42 -15.85 -14.88 -14.61 -12.46 -12.15 -11.00 -10.25  -9.68  -9.41
         -8.44  -8.03  -7.89  -7.76  -7.48  -6.71  -3.47  -3.38  -3.05  -2.57
         -2.26  -2.15  -1.53  -1.23  -1.09  -1.02  -0.16  -0.13  -0.11   0.84
          1.01   1.06   1.75   2.18   2.78   3.66   4.03   4.26   4.64   5.23
          5.28   5.83   7.42   7.83   7.88   8.13   9.05   9.16   9.24   9.71
          9.84  10.56  11.40  11.47  11.58  12.13  12.45  12.72  12.84  12.90
         13.84  14.65  14.68  14.72  15.16  16.09  16.34  16.37  17.27  17.40
         17.74  17.91  18.45  19.26  19.29  20.43  21.49  22.87  23.00  23.72
         23.98  24.37  25.62  25.68  27.25  28.14  34.31  37.30  38.14  40.28
         44.34  55.97  56.11  57.26  58.12  60.19  65.93  67.53  69.05  70.98
         79.22  86.52  89.87  95.18
 158  1 -16.03 -15.50 -15.50 -15.07 -12.12 -11.62 -11.62 -10.98  -9.37  -8.93
         -8.93  -8.36  -7.33  -7.25  -7.25  -6.68  -3.53  -3.04  -2.83  -2.83
         -2.15  -2.15  -1.70  -1.66  -0.76  -0.70  -0.44  -0.44   0.45   0.46
          1.08   1.37   2.02   2.29   2.58   2.86   2.87   4.05   4.05   4.87
          5.87   7.57   7.57   8.02   8.10   8.11   8.77   9.18   9.55   9.55
          9.73  10.03  10.35  11.43  11.55  11.55  12.95  13.06  13.06  13.52
         14.25  14.25  14.45  15.02  15.32  15.64  15.71  15.72  17.85  18.61
         18.62  18.95  19.82  19.82  20.20  20.34  21.37  21.38  21.76  21.92
         26.61  26.87  26.87  27.22  28.43  34.81  34.82  41.73  41.81  43.65
         43.66  50.68  55.57  55.59  60.04  60.13  62.68  73.82  73.86  81.71
         82.23  82.24  85.36  92.47
 159  1 -15.84 -15.40 -15.39 -15.11 -12.53 -12.23 -12.22 -11.72  -8.37  -8.02
         -8.02  -7.41  -7.20  -7.16  -7.16  -6.74  -3.67  -3.43  -3.25  -3.24
         -2.40  -2.39  -2.07  -2.05  -1.87  -1.44  -1.36  -1.36   1.74   1.75
          2.40   2.62   2.67   3.28   3.71   3.85   3.86   4.37   4.41   4.41
          5.26   6.71   6.71   6.95   6.96   7.26   7.79   8.19   8.63   8.64
          8.79   8.82   9.14   9.49   9.91   9.92  14.44  14.61  14.62  15.57
         15.59  15.60  16.00  16.10  16.17  16.23  16.79  16.79  17.73  18.58
         18.64  18.64  18.98  18.99  19.42  19.75  20.34  20.35  21.01  21.61
         27.81  27.85  27.87  29.19  29.66  31.61  31.62  32.87  42.31  44.73
         44.75  50.19  56.71  56.75  60.03  60.18  65.49  77.67  77.71  80.48
         81.37  81.39  90.84  92.03
 160  1 -16.19 -15.66 -14.94 -14.93 -12.48 -12.48 -11.67 -11.03  -8.85  -8.85
         -7.96  -7.62  -7.62  -7.40  -6.99  -6.97  -3.56  -3.52  -3.25  -3.24
         -2.31  -1.97  -1.97  -1.80  -1.66  -1.05  -0.32  -0.31   0.22   1.03
          1.28   1.29   2.97   2.98   3.47   3.50   4.63   4.64   5.11   5.26
          5.26   5.39   6.31   6.32   6.98   8.49   8.73   8.75   8.75   8.81
          8.92   8.92  10.65  10.66  10.70  11.40  13.76  13.81  14.03  14.32
         14.33  14.80  15.39  15.40  16.49  16.50  16.61  16.79  17.44  17.44
         17.94  18.11  18.12  19.20  19.20  19.53  20.42  21.59  21.89  23.21
         25.67  25.69  26.15  27.86  29.75  29.75  33.06  33.61  36.25  36.28
         41.53  45.95  55.82  55.94  56.45  61.32  69.00  69.73  69.75  74.43
         83.61  84.94  84.97  95.72
 161  1 -16.42 -15.85 -14.88 -14.61 -12.45 -12.15 -11.00 -10.25  -9.68  -9.41
         -8.45  -8.03  -7.89  -7.76  -7.48  -6.71  -3.47  -3.38  -3.05  -2.57
         -2.26  -2.15  -1.53  -1.23  -1.08  -1.02  -0.15  -0.12  -0.11   0.84
          1.01   1.06   1.75   2.18   2.78   3.65   4.02   4.26   4.63   5.22
          5.28   5.83   7.40   7.83   7.88   8.12   9.05   9.17   9.25   9.72
          9.84  10.56  11.41  11.48  11.58  12.14  12.46  12.72  12.84  12.90
         13.85  14.65  14.68  14.72  15.16  16.07  16.34  16.35  17.27  17.40
         17.73  17.90  18.44  19.25  19.28  20.42  21.49  22.86  22.99  23.72
         23.99  24.36  25.63  25.67  27.24  28.14  34.26  37.30  38.14  40.24
         44.31  55.95  56.15  57.25  58.13  60.24  65.95  67.50  69.01  70.99
         79.14  86.50  89.83  95.21
 162  1 -16.50 -15.91 -14.88 -14.50 -12.35 -11.91 -10.61 -10.07  -9.74  -9.73
         -8.83  -8.31  -8.17  -7.97  -7.49  -6.62  -3.56  -3.07  -2.67  -2.29
         -2.23  -1.84  -1.80  -1.48  -1.08  -0.86  -0.73  -0.20   0.57   0.59
          0.98   1.55   1.91   1.96   2.72   2.85   3.07   3.70   4.53   5.50
          5.77   6.05   7.54   8.34   8.76   8.97   9.32   9.72   9.81  10.09
         10.43  10.72  10.81  10.87  11.75  11.77  12.04  12.66  12.97  13.35
         13.61  14.05  14.38  14.39  15.06  15.17  15.78  16.06  17.13  17.26
         17.60  18.29  18.88  19.35  20.29  21.25  21.81  22.49  23.20  23.70
         23.87  23.98  24.34  25.67  26.79  27.38  37.66  39.66  41.75  47.79
         49.00  49.12  52.38  58.10  58.89  66.70  67.48  67.69  69.82  70.56
         75.08  83.17  85.60  87.16
 163  1 -16.42 -15.85 -14.88 -14.61 -12.46 -12.15 -11.00 -10.25  -9.68  -9.41
         -8.44  -8.03  -7.89  -7.76  -7.48  -6.71  -3.47  -3.38  -3.05  -2.57
         -2.26  -2.15  -1.53  -1.23  -1.09  -1.02  -0.16  -0.13  -0.11   0.84
          1.01   1.06   1.75   2.18   2.78   3.66   4.03   4.26   4.64   5.23
          5.28   5.83   7.42   7.83   7.88   8.13   9.05   9.16   9.24   9.71
          9.84  10.56  11.40  11.47  11.58  12.13  12.45  12.72  12.84  12.90
         13.84  14.65  14.68  14.72  15.16  16.09  16.34  16.37  17.27  17.40
         17.74  17.91  18.45  19.26  19.29  20.43  21.49  22.87  23.00  23.72
         23.98  24.37  25.62  25.68  27.25  28.14  34.31  37.30  38.14  40.28
         44.34  55.97  56.11  57.26  58.12  60.19  65.93  67.53  69.05  70.98
         79.22  86.52  89.87  95.18
 164  1 -16.20 -15.66 -14.94 -14.93 -12.48 -12.48 -11.67 -11.03  -8.85  -8.85
         -7.95  -7.62  -7.62  -7.40  -6.99  -6.97  -3.56  -3.52  -3.24  -3.24
         -2.31  -1.97  -1.97  -1.81  -1.66  -1.04  -0.32  -0.32   0.22   1.02
          1.27   1.28   2.98   2.98   3.47   3.50   4.64   4.64   5.11   5.27
          5.27   5.40   6.32   6.33   6.99   8.48   8.74   8.74   8.75   8.80
          8.92   8.92  10.65  10.65  10.69  11.39  13.75  13.80  14.03  14.32
         14.32  14.79  15.39  15.40  16.50  16.50  16.61  16.81  17.44  17.45
         17.93  18.12  18.12  19.20  19.20  19.54  20.42  21.60  21.90  23.19
         25.68  25.68  26.16  27.89  29.75  29.75  33.10  33.63  36.28  36.29
         41.54  45.93  55.90  55.93  56.49  61.36  68.93  69.78  69.80  74.43
         83.69  84.94  84.98  95.68
 165  1 -15.84 -15.39 -15.39 -15.11 -12.53 -12.23 -12.23 -11.72  -8.38  -8.02
         -8.02  -7.41  -7.20  -7.16  -7.16  -6.73  -3.66  -3.43  -3.25  -3.25
         -2.40  -2.40  -2.07  -2.05  -1.88  -1.44  -1.36  -1.36   1.74   1.74
          2.40   2.62   2.66   3.28   3.71   3.85   3.86   4.37   4.41   4.42
          5.25   6.71   6.72   6.96   6.96   7.26   7.79   8.19   8.63   8.64
          8.78   8.82   9.13   9.48   9.90   9.90  14.44  14.62  14.62  15.57
         15.59  15.59  16.00  16.09  16.17  16.23  16.80  16.81  17.74  18.57
         18.63  18.63  19.00  19.00  19.43  19.75  20.34  20.35  21.02  21.60
         27.82  27.86  27.87  29.20  29.65  31.61  31.62  32.89  42.31  44.74
         44.75  50.20  56.70  56.72  60.07  60.23  65.57  77.69  77.71  80.45
         81.37  81.38  91.07  92.02
 166  1 -15.56 -15.29 -15.28 -15.28 -12.61 -12.61 -12.61 -12.31  -7.36  -7.36
         -7.35  -7.03  -7.03  -7.02  -6.86  -6.86  -4.17  -3.78  -3.78  -3.77
         -2.30  -2.30  -2.30  -2.18  -2.18  -1.96  -1.96  -1.96   2.89   2.89
          2.90   3.13   4.14   4.14   4.14   4.22   4.23   5.18   5.35   5.36
          5.36   6.06   6.06   6.06   6.19   6.20   6.20   7.40   7.41   7.65
          7.65   7.66   8.57   8.58   8.58   8.72  16.14  16.19  16.20  16.21
         16.77  16.78  16.99  16.99  17.00  17.46  17.46  17.47  18.50  18.52
         18.53  19.17  19.17  19.17  19.49  19.49  19.49  19.99  19.99  21.77
         28.83  28.84  28.85  29.92  29.95  29.99  29.99  30.00  56.00  56.01
         56.08  59.55  64.19  64.24  64.38  71.62  71.64  71.66  74.83  74.98
         90.88  90.89  90.92 105.00
 167  1 -15.84 -15.39 -15.39 -15.11 -12.53 -12.23 -12.22 -11.72  -8.37  -8.02
         -8.02  -7.41  -7.20  -7.16  -7.16  -6.74  -3.67  -3.43  -3.25  -3.25
         -2.40  -2.39  -2.07  -2.06  -1.87  -1.43  -1.36  -1.36   1.75   1.75
          2.40   2.63   2.67   3.28   3.71   3.85   3.85   4.37   4.41   4.41
          5.24   6.71   6.71   6.96   6.96   7.26   7.79   8.19   8.63   8.64
          8.79   8.82   9.14   9.49   9.92   9.92  14.45  14.62  14.62  15.56
         15.59  15.61  16.00  16.10  16.17  16.22  16.79  16.79  17.73  18.57
         18.63  18.64  19.00  19.00  19.42  19.75  20.34  20.34  21.01  21.60
         27.83  27.86  27.86  29.18  29.66  31.60  31.60  32.88  42.32  44.72
         44.74  50.22  56.61  56.64  60.06  60.25  65.52  77.70  77.71  80.43
         81.34  81.34  90.97  92.04
 168  1 -16.03 -15.50 -15.50 -15.07 -12.12 -11.62 -11.62 -10.98  -9.37  -8.93
         -8.93  -8.37  -7.33  -7.25  -7.25  -6.68  -3.52  -3.04  -2.83  -2.83
         -2.16  -2.16  -1.70  -1.67  -0.75  -0.70  -0.43  -0.43   0.46   0.46
          1.08   1.37   2.02   2.28   2.59   2.86   2.86   4.05   4.05   4.87
          5.86   7.57   7.57   8.02   8.10   8.10   8.78   9.18   9.54   9.54
          9.74  10.03  10.34  11.44  11.56  11.56  12.96  13.07  13.07  13.51
         14.24  14.25  14.46  15.02  15.31  15.64  15.70  15.70  17.85  18.61
         18.61  18.94  19.82  19.82  20.19  20.33  21.37  21.37  21.76  21.92
         26.61  26.86  26.86  27.22  28.43  34.80  34.80  41.72  41.81  43.63
         43.64  50.68  55.55  55.56  60.07  60.12  62.64  73.72  73.74  81.71
         82.22  82.24  85.38  92.45
 169  1 -16.09 -15.55 -15.55 -15.07 -11.81 -11.22 -11.22 -10.50  -9.87  -9.44
         -9.44  -8.95  -7.37  -7.28  -7.28  -6.66  -3.59  -2.89  -2.81  -2.81
         -1.61  -1.61  -1.42  -1.06  -0.44  -0.44  -0.17   0.19   0.29   0.34
          0.34   0.80   0.93   1.53   2.04   2.04   2.56   4.10   4.10   5.18
          6.12   7.78   7.78   8.08   8.85   8.85   9.31   9.77   9.96  10.58
         10.58  11.23  11.23  11.29  11.69  12.20  12.49  12.78  12.96  13.32
         13.32  13.49  13.49  13.98  14.64  14.73  14.73  15.29  17.76  18.68
         18.68  19.62  20.30  20.30  20.50  20.89  21.91  21.91  22.01  22.34
         25.84  25.94  26.28  26.29  27.79  36.27  36.28  43.13  50.58  50.61
         52.93  52.93  53.02  57.32  60.70  62.53  62.66  65.87  65.92  72.15
         80.63  80.65  82.41  83.80
 170  1 -16.03 -15.50 -15.50 -15.07 -12.12 -11.62 -11.62 -10.98  -9.37  -8.93
         -8.93  -8.36  -7.33  -7.25  -7.25  -6.68  -3.53  -3.04  -2.83  -2.83
         -2.15  -2.15  -1.70  -1.66  -0.76  -0.70  -0.44  -0.44   0.45   0.46
          1.08   1.37   2.02   2.29   2.58   2.86   2.87   4.05   4.05   4.87
          5.87   7.57   7.57   8.02   8.10   8.11   8.77   9.18   9.55   9.55
          9.73  10.03  10.35  11.43  11.55  11.55  12.95  13.06  13.06  13.52
         14.25  14.25  14.45  15.02  15.32  15.64  15.71  15.72  17.85  18.61
         18.62  18.95  19.82  19.82  20.20  20.34  21.37  21.38  21.76  21.92
         26.61  26.87  26.87  27.22  28.43  34.81  34.82  41.73  41.81  43.65
         43.66  50.68  55.57  55.59  60.04  60.13  62.68  73.82  73.86  81.71
         82.23  82.24  85.36  92.47
 171  1 -15.84 -15.39 -15.39 -15.11 -12.53 -12.23 -12.23 -11.72  -8.38  -8.02
         -8.02  -7.41  -7.20  -7.16  -7.16  -6.73  -3.66  -3.43  -3.25  -3.25
         -2.40  -2.40  -2.07  -2.05  -1.88  -1.44  -1.36  -1.36   1.74   1.74
          2.40   2.62   2.66   3.28   3.71   3.85   3.86   4.37   4.41   4.42
          5.25   6.71   6.72   6.96   6.96   7.26   7.79   8.19   8.63   8.64
          8.78   8.82   9.13   9.48   9.90   9.90  14.44  14.62  14.62  15.57
         15.59  15.59  16.00  16.09  16.17  16.23  16.80  16.81  17.74  18.57
         18.63  18.63  19.00  19.00  19.43  19.75  20.34  20.35  21.02  21.60
         27.82  27.86  27.87  29.20  29.65  31.61  31.62  32.89  42.31  44.74
         44.75  50.20  56.70  56.72  60.07  60.23  65.57  77.69  77.71  80.45
         81.37  81.38  91.07  92.02
 172  1 -15.57 -15.29 -15.28 -15.28 -12.61 -12.61 -12.61 -12.31  -7.36  -7.35
         -7.35  -7.03  -7.03  -7.03  -6.85  -6.85  -4.16  -3.78  -3.78  -3.78
         -2.31  -2.31  -2.30  -2.18  -2.18  -1.96  -1.96  -1.96   2.89   2.89
          2.89   3.14   4.13   4.13   4.14   4.22   4.22   5.18   5.36   5.36
          5.36   6.06   6.06   6.07   6.20   6.21   6.21   7.41   7.41   7.64
          7.65   7.65   8.57   8.57   8.58   8.71  16.13  16.20  16.20  16.20
         16.78  16.78  16.99  16.99  16.99  17.47  17.47  17.48  18.53  18.53
         18.53  19.17  19.17  19.18  19.48  19.48  19.50  19.99  19.99  21.74
         28.85  28.85  28.86  29.95  29.95  29.97  29.99  29.99  56.00  56.03
         56.03  59.56  64.29  64.31  64.31  71.59  71.59  71.59  75.08  75.08
         90.89  90.97  90.97 105.11
siesta: Fermi energy =      -5.371731 eV

siesta: Program's energy decomposition (eV):
siesta: Ebs     =      -344.396053
siesta: Eions   =      1510.441798
siesta: Ena     =       465.190349
siesta: Ekin    =       325.319181
siesta: Enl     =       111.033429
siesta: DEna    =         5.065124
siesta: DUscf   =         1.530265
siesta: DUext   =         0.000000
siesta: Exc     =      -259.668250
siesta: eta*DQ  =         0.000000
siesta: Emadel  =         0.000000
siesta: Emeta   =         0.000000
siesta: Emolmec =         0.000000
siesta: Ekinion =         0.000000
siesta: Eharris =      -861.971741
siesta: Etot    =      -861.971700
siesta: FreeEng =      -861.971700

siesta: Final energy (eV):
siesta:  Band Struct. =    -344.396053
siesta:       Kinetic =     325.319181
siesta:       Hartree =      57.776547
siesta:    Ext. field =       0.000000
siesta:   Exch.-corr. =    -259.668250
siesta:  Ion-electron =    -446.692503
siesta:       Ion-ion =    -538.706675
siesta:       Ekinion =       0.000000
siesta:         Total =    -861.971700

siesta: Stress tensor (static) (eV/Ang**3):
siesta:    -0.000793    0.000159    0.000159
siesta:     0.000159   -0.000793    0.000159
siesta:     0.000159    0.000159   -0.000793

siesta: Constrained stress tensor (static) (eV/Ang**3):
siesta:    -0.000793    0.000159    0.000159
siesta:     0.000159   -0.000793    0.000159
siesta:     0.000159    0.000159   -0.000793

siesta: Cell volume =        160.888283 Ang**3

siesta: Pressure (static):
siesta:                Solid            Molecule  Units
siesta:           0.00000864          0.00001201  Ry/Bohr**3
siesta:           0.00079302          0.00110228  eV/Ang**3
siesta:           1.27056809          1.76607133  kBar
(Free)E+ p_basis*V_orbitals  =        -852.998097
(Free)Eharris+ p_basis*V_orbitals  =        -852.997405

* Maximum dynamic memory allocated : Node    0 =   101 MB

* Maximum memory occured during init_pulay_arrrays            

timer: CPU execution times:
timer:  Routine       Calls   Time/call    Tot.time        %
timer:  siesta            1    2819.900    2819.900   100.00
timer:  Setup             1       0.176       0.176     0.01
timer:  bands             3       0.539       1.618     0.06
timer:  writewave         3       0.009       0.027     0.00
timer:  KSV_init          1       0.000       0.000     0.00
timer:  IterMD           21     134.190    2817.981    99.93
timer:  hsparse          21       0.272       5.713     0.20
timer:  overlap          21       0.126       2.643     0.09
timer:  IterSCF          99      23.930    2369.082    84.01
timer:  kinefsm          42       0.131       5.483     0.19
timer:  nlefsm           42       4.994     209.731     7.44
timer:  DHSCF           120      10.532    1263.781    44.82
timer:  DHSCF1           21       0.054       1.143     0.04
timer:  DHSCF2           21       3.291      69.110     2.45
timer:  REORD           762       0.000       0.111     0.00
timer:  POISON          141       0.005       0.686     0.02
timer:  DHSCF3          120       8.716    1045.967    37.09
timer:  rhoofd          120       3.891     466.903    16.56
timer:  cellXC          120       0.035       4.179     0.15
timer:  vmat            120       4.783     574.006    20.36
timer:  MolMec           42       0.000       0.001     0.00
timer:  diagon           99      13.338    1320.463    46.83
timer:  c-eigval      19145       0.018     350.598    12.43
timer:  c-buildHS     19145       0.012     234.228     8.31
timer:  cdiag         38190       0.009     341.280    12.10
timer:  cdiag1        38190       0.001      30.777     1.09
timer:  cdiag2        38190       0.002      93.182     3.30
timer:  cdiag3        38190       0.006     210.866     7.48
timer:  cdiag4        38190       0.000       4.495     0.16
timer:  c-eigvec      19045       0.024     458.749    16.27
timer:  c-buildD      19044       0.027     511.191    18.13
timer:  DHSCF4           21       7.024     147.511     5.23
timer:  dfscf            21       6.304     132.375     4.69
timer:  overfsm          21       0.127       2.669     0.09
timer:  optical           1       0.000       0.000     0.00
  

elaps: ELAPSED times:
elaps:  Routine       Calls   Time/call    Tot.time        %
elaps:  siesta            1    2821.892    2821.892   100.00
elaps:  Setup             1       0.239       0.239     0.01
elaps:  bands             3       0.539       1.617     0.06
elaps:  writewave         3       0.014       0.042     0.00
elaps:  KSV_init          1       0.000       0.000     0.00
elaps:  IterMD           21     134.280    2819.887    99.93
elaps:  hsparse          21       0.272       5.714     0.20
elaps:  overlap          21       0.127       2.672     0.09
elaps:  IterSCF          99      23.943    2370.375    84.00
elaps:  kinefsm          42       0.131       5.483     0.19
elaps:  nlefsm           42       4.994     209.750     7.43
elaps:  DHSCF           120      10.533    1263.938    44.79
elaps:  DHSCF1           21       0.054       1.143     0.04
elaps:  DHSCF2           21       3.291      69.116     2.45
elaps:  REORD           762       0.000       0.111     0.00
elaps:  POISON          141       0.005       0.686     0.02
elaps:  DHSCF3          120       8.718    1046.103    37.07
elaps:  rhoofd          120       3.891     466.967    16.55
elaps:  cellXC          120       0.035       4.180     0.15
elaps:  vmat            120       4.784     574.079    20.34
elaps:  MolMec           42       0.000       0.000     0.00
elaps:  diagon           99      13.349    1321.534    46.83
elaps:  c-eigval      19145       0.018     351.399    12.45
elaps:  c-buildHS     19145       0.012     234.411     8.31
elaps:  cdiag         38190       0.009     342.077    12.12
elaps:  cdiag1        38190       0.001      31.057     1.10
elaps:  cdiag2        38190       0.002      93.346     3.31
elaps:  cdiag3        38190       0.006     211.457     7.49
elaps:  cdiag4        38190       0.000       4.568     0.16
elaps:  c-eigvec      19045       0.024     458.965    16.26
elaps:  c-buildD      19044       0.027     511.411    18.12
elaps:  DHSCF4           21       7.025     147.526     5.23
elaps:  dfscf            21       6.304     132.389     4.69
elaps:  overfsm          21       0.127       2.669     0.09
elaps:  optical           1       0.000       0.000     0.00
  
>> End of run:  14-MAY-2013  11:00:34
