Siesta Version:                                        siesta-3.2
Architecture  : x86_64-unknown-linux-gnu--unknown
Compiler flags: f95 -g -O2
SERIAL version

* Running in serial mode
Siesta Version:                                        siesta-3.2
Architecture  : x86_64-unknown-linux-gnu--unknown
Compiler flags: f95 -g -O2
SERIAL version

* Running in serial mode
>> Start of run:  10-MAY-2013   1:54:48

                           ***********************       
                           *  WELCOME TO SIESTA  *       
                           ***********************       

reinit: Reading from standard input
************************** Dump of input data file ****************************
# FDF for silicon
SystemName             silicon          # Descriptive name of the system
SystemLabel            si          # Short name for naming files
NumberOfAtoms 8
NumberOfSpecies 1
%block ChemicalSpeciesLabel
1 14 Si
%endblock ChemicalSpeciesLabel
LatticeConstant  5.25 Ang
##Basis set Definition##
PAO.BasisType          split        # Type of PAO basis set
PAO.EnergyShift        50 meV
PAO.BasisSize          DZP          # (DZP) Double-z + polarization
#%block LatticeVectors
#0.500 0.500 0.000
#0.500 0.000 0.500
#0.000 0.500 0.500
#%endblock LatticeVectors
AtomicCoordinatesFormat NotScaledCartesianAng
%block AtomicCoordinatesAndAtomicSpecies
	0.00000000	0.00000000	0.00000000  1 Si  1
	1.36000000	1.36000000	1.36000000  1 Si  2
	2.72000000	2.72000000	0.00000000  1 Si  3
	4.08000000	4.08000000	1.36000000  1 Si  4
	2.72000000	0.00000000	2.72000000  1 Si  5
	4.08000000	1.36000000	4.08000000  1 Si  6
	0.00000000	2.72000000	2.72000000  1 Si  7
	1.36000000	4.08000000	4.08000000  1 Si  8
%endblock AtomicCoordinatesAndAtomicSpecies
MeshCutoff 100.0 Ry # 100, 120, 180, 260
kgrid_cutoff 30.0 Bohr # 30, 35, 40, 45
DM.Mixingweight  0.3
DM.NumberPulay    3
DM.Tolerance      1.d-3
DM.UseSaveDM      true
ElectronicTemperature 25 meV
SolutionMethod    diagon
XC.functional      GGA	    # Generalized Gradient Approximation
XC.authors        PBE          # Perdew-Burke-Ernzerhof
SpinPolarized     false
MD.TypeOfRun           CG           # Type of dynamics:
MD.VariableCell        true
MD.NumCGsteps          100          # Number of CG steps for coordinate optimization
MD.MaxCGDispl          0.2 Bohr     # Maximum atomic displacement
                                    #   in one CG step (Bohr)
MD.MaxForceTol         0.04 eV/Ang  # Tolerance in the maximum
                                    #   atomic force (Ry/Bohr)
				
##Output Specification##
WriteMDhistory         true         # Trajectory information
WriteCoorStep          true
WriteCoorXmol          true
WriteMDXmol            true
WriteEigenvalues true
WriteKbands      true
WriteBands       true
WriteWaveFunctions true
WriteMullikenPoP   1
%block BandLines
1	1.000	1.000 1.000 L
25	0.000	0.000	0.000 \Gamma
30	2.000	0.000	0.000 X
10	2.000	0.500	0.500 U
35	0.000	0.000	0.000 \Gamma
%endblock BandLines
%block WaveFuncKPoints
0.0 0.0 0.0 from 1 to 50 # > 16 = 4/2*8 (Valenzelektronen/2, Atomzahl ...)
%endblock WaveFuncKpoints
************************** End of input data file *****************************

reinit: -----------------------------------------------------------------------
reinit: System Name: silicon
reinit: -----------------------------------------------------------------------
reinit: System Label: si                                                          
reinit: -----------------------------------------------------------------------
>> Start of run:  10-MAY-2013   1:54:48

                           ***********************       
                           *  WELCOME TO SIESTA  *       
                           ***********************       

reinit: Reading from standard input
************************** Dump of input data file ****************************
************************** End of input data file *****************************

reinit: -----------------------------------------------------------------------
reinit: System Name: 
reinit: -----------------------------------------------------------------------
reinit: System Label: siesta                                                      
reinit: -----------------------------------------------------------------------

initatom: Reading input for the pseudopotentials and atomic orbitals ----------
No species found!!!
ERROR STOP from Node:    0

initatom: Reading input for the pseudopotentials and atomic orbitals ----------
 Species number:            1  Label: Si Atomic number:          14
Ground state valence configuration:   3s02  3p02
Reading pseudopotential information in formatted form from Si.psf

Valence configuration for pseudopotential generation:
3s( 2.00) rc: 1.75
3p( 2.00) rc: 1.94
3d( 0.00) rc: 2.09
4f( 0.00) rc: 2.09
For Si, standard SIESTA heuristics set lmxkb to 3
 (one more than the basis l, including polarization orbitals).
Use PS.lmax or PS.KBprojectors blocks to override.

<basis_specs>
===============================================================================
Si                   Z=  14    Mass=  28.090        Charge= 0.17977+309
Lmxo=1 Lmxkb= 3    BasisType=split      Semic=F
L=0  Nsemic=0  Cnfigmx=3
          n=1  nzeta=2  polorb=0
            splnorm:   0.15000    
               vcte:    0.0000    
               rinn:    0.0000    
                rcs:    0.0000      0.0000    
            lambdas:    1.0000      1.0000    
L=1  Nsemic=0  Cnfigmx=3
          n=1  nzeta=2  polorb=1
            splnorm:   0.15000    
               vcte:    0.0000    
               rinn:    0.0000    
                rcs:    0.0000      0.0000    
            lambdas:    1.0000      1.0000    
-------------------------------------------------------------------------------
L=0  Nkbl=1  erefs: 0.17977+309
L=1  Nkbl=1  erefs: 0.17977+309
L=2  Nkbl=1  erefs: 0.17977+309
L=3  Nkbl=1  erefs: 0.17977+309
===============================================================================
</basis_specs>

atom: Called for Si                    (Z =  14)

read_vps: Pseudopotential generation method:
read_vps: ATM3      Troullier-Martins                       
Total valence charge:    4.00000

read_vps: Pseudopotential includes a core correction:
read_vps: Pseudo-core for xc-correction

xc_check: Exchange-correlation functional:
xc_check: GGA Perdew, Burke & Ernzerhof 1996
V l=0 = -2*Zval/r beyond r=  2.0104
V l=1 = -2*Zval/r beyond r=  2.0873
V l=2 = -2*Zval/r beyond r=  2.1670
V l=3 = -2*Zval/r beyond r=  2.1670
All V_l potentials equal beyond r=  2.0613
This should be close to max(r_c) in ps generation
All pots = -2*Zval/r beyond r=  2.1670

VLOCAL1: 99.0% of the norm of Vloc inside     10.216 Ry
VLOCAL1: 99.9% of the norm of Vloc inside     23.282 Ry
atom: Maximum radius for 4*pi*r*r*local-pseudopot. charge    2.45560
atom: Maximum radius for r*vlocal+2*Zval:    2.14012
GHOST: No ghost state for L =  0
GHOST: No ghost state for L =  1
GHOST: No ghost state for L =  2
GHOST: No ghost state for L =  3

KBgen: Kleinman-Bylander projectors: 
   l= 0   rc=  2.306811   el= -0.791441   Ekb=  5.289775   kbcos=  0.291595
   l= 1   rc=  2.394965   el= -0.300632   Ekb=  1.944256   kbcos=  0.287657
   l= 2   rc=  2.549439   el=  0.001958   Ekb= -1.788485   kbcos= -0.056492
   l= 3   rc=  2.782581   el=  0.003046   Ekb= -0.472620   kbcos= -0.006203

KBgen: Total number of  Kleinman-Bylander projectors:   16
atom: -------------------------------------------------------------------------

atom: SANKEY-TYPE ORBITALS:
atom: Selected multiple-zeta basis: split     

SPLIT: Orbitals with angular momentum L= 0

SPLIT: Basis orbitals for state 3s

SPLIT: PAO cut-off radius determined from an
SPLIT: energy shift=  0.003675 Ry

   izeta = 1
                 lambda =    1.000000
                     rc =    6.116033
                 energy =   -0.788343
                kinetic =    0.528041
    potential(screened) =   -1.316383
       potential(ionic) =   -3.704743

   izeta = 2
                 rmatch =    4.530823
              splitnorm =    0.150000
                 energy =   -0.692892
                kinetic =    0.848665
    potential(screened) =   -1.541557
       potential(ionic) =   -4.044985

SPLIT: Orbitals with angular momentum L= 1

SPLIT: Basis orbitals for state 3p

SPLIT: PAO cut-off radius determined from an
SPLIT: energy shift=  0.003675 Ry

   izeta = 1
                 lambda =    1.000000
                     rc =    7.853192
                 energy =   -0.297152
                kinetic =    0.797948
    potential(screened) =   -1.095101
       potential(ionic) =   -3.275753

   izeta = 2
                 rmatch =    5.330310
              splitnorm =    0.150000
                 energy =   -0.228170
                kinetic =    1.148579
    potential(screened) =   -1.376749
       potential(ionic) =   -3.739005

POLgen: Perturbative polarization orbital with L=  2

POLgen: Polarization orbital for state 3p

   izeta = 1
                     rc =    7.853192
                 energy =    0.340222
                kinetic =    1.096718
    potential(screened) =   -0.756496
       potential(ionic) =   -2.716423
atom: Total number of Sankey-type orbitals: 13

atm_pop: Valence configuration (for local Pseudopot. screening):
 3s( 2.00)                                                            
 3p( 2.00)                                                            
Vna: chval, zval:    4.00000   4.00000

Vna:  Cut-off radius for the neutral-atom potential:   7.853192
comcore: Pseudo-core radius Rcore=  2.999314

atom: _________________________________________________________________________

prinput: Basis input ----------------------------------------------------------

PAO.BasisType split     

%block ChemicalSpeciesLabel
    1   14 Si                      # Species index, atomic number, species label
%endblock ChemicalSpeciesLabel

%block PAO.Basis                 # Define Basis set
Si                    2                    # Species label, number of l-shells
 n=3   0   2                         # n, l, Nzeta 
   6.116      4.531   
   1.000      1.000   
 n=3   1   2 P   1                   # n, l, Nzeta, Polarization, NzetaPol
   7.853      5.330   
   1.000      1.000   
%endblock PAO.Basis

prinput: ----------------------------------------------------------------------

coor:   Atomic-coordinates input format  =     Cartesian coordinates
coor:                                          (in Angstroms)

siesta: Atomic coordinates (Bohr) and species
siesta:      0.00000   0.00000   0.00000  1        1
siesta:      2.57003   2.57003   2.57003  1        2
siesta:      5.14006   5.14006   0.00000  1        3
siesta:      7.71009   7.71009   2.57003  1        4
siesta:      5.14006   0.00000   5.14006  1        5
siesta:      7.71009   2.57003   7.71009  1        6
siesta:      0.00000   5.14006   5.14006  1        7
siesta:      2.57003   7.71009   7.71009  1        8

siesta: System type = bulk      

initatomlists: Number of atoms, orbitals, and projectors:      8   104   128

siesta: ******************** Simulation parameters ****************************
siesta:
siesta: The following are some of the parameters of the simulation.
siesta: A complete list of the parameters used, including default values,
siesta: can be found in file out.fdf
siesta:
redata: Non-Collinear-spin run           =     F
redata: SpinPolarized (Up/Down) run      =     F
redata: Number of spin components        =     1
redata: Long output                      =     F
redata: Number of Atomic Species         =        1
redata: Charge density info will appear in .RHO file
redata: Write Mulliken Pop.              =     Atomic and Orbital charges
redata: Mesh Cutoff                      =   100.0000  Ry
redata: Net charge of the system         =     0.0000 |e|
redata: Max. number of SCF Iter          =       50
redata: Performing Pulay mixing using    =     3 iterations
redata: Mix DM in first SCF step ?       =     F
redata: Write Pulay info on disk?        =     F
redata: Discard 1st Pulay DM after  kick =     F
redata: New DM Mixing Weight             =     0.3000
redata: New DM Occupancy tolerance       = 0.000000000001
redata: No kicks to SCF
redata: DM Mixing Weight for Kicks       =     0.5000
redata: DM Tolerance for SCF             =     0.001000
redata: Require Energy convergence for SCF =     F
redata: DM Energy tolerance for SCF      =     0.000100 eV
redata: Require Harris convergence for SCF =     F
redata: DM Harris energy tolerance for SCF =     0.000100 eV
redata: Using Saved Data (generic)   =     F
redata: Use continuation files for DM    =     T
redata: Neglect nonoverlap interactions  =     F
redata: Method of Calculation            =     Diagonalization
redata: Divide and Conquer               =     T
redata: Electronic Temperature           =     0.0018  Ry
redata: Fix the spin of the system       =     F
redata: Dynamics option                  =     CG coord. optimization
redata: Variable cell                    =     T
redata: Use continuation files for CG    =     F
redata: Max atomic displ per move        =     0.2000  Bohr
redata: Maximum number of CG moves       =      100
redata: Force tolerance                  =     0.0016  Ry/Bohr
redata: Stress tolerance                 =     1.0000  GPa
redata: ***********************************************************************
Total number of electrons:    32.000000
Total ionic charge:    32.000000
 Kpoints in:          196 . Kpoints trimmed:          172

siesta: k-grid: Number of k-points =   172
siesta: k-grid: Cutoff (effective) =    18.375 Ang
siesta: k-grid: Supercell and displacements
siesta: k-grid:    0   7   0      0.000
siesta: k-grid:    0   0   7      0.000
siesta: k-grid:    7   0   0      0.000
Naive supercell factors:     5    5    5

superc: Internal auxiliary supercell:     5 x     5 x     5  =     125
superc: Number of atoms, orbitals, and projectors:   1000  13000  16000

* Maximum dynamic memory allocated =     2 MB

siesta:                 ==============================
                            Begin CG move =      0
                        ==============================

outcoor: Atomic coordinates (Ang):                          
    0.00000000    0.00000000    0.00000000   1       1  Si
    1.36000000    1.36000000    1.36000000   1       2  Si
    2.72000000    2.72000000    0.00000000   1       3  Si
    4.08000000    4.08000000    1.36000000   1       4  Si
    2.72000000    0.00000000    2.72000000   1       5  Si
    4.08000000    1.36000000    4.08000000   1       6  Si
    0.00000000    2.72000000    2.72000000   1       7  Si
    1.36000000    4.08000000    4.08000000   1       8  Si

superc: Internal auxiliary supercell:     5 x     5 x     5  =     125
superc: Number of atoms, orbitals, and projectors:   1000  13000  16000

outcell: Unit cell vectors (Ang):
        5.250000    0.000000    0.000000
        0.000000    5.250000    0.000000
        0.000000    0.000000    5.250000

outcell: Cell vector modules (Ang)   :    5.250000    5.250000    5.250000
outcell: Cell angles (23,13,12) (deg):     90.0000     90.0000     90.0000
outcell: Cell volume (Ang**3)        :    144.7031
New_DM. Step:     1
Initializing Density Matrix...

iodm: Reading Density Matrix from files

InitMesh: MESH =    32 x    32 x    32 =       32768
InitMesh: Mesh cutoff (required, used) =   100.000   102.679 Ry

* Maximum dynamic memory allocated =    71 MB

stepf: Fermi-Dirac step function

siesta: Program's energy decomposition (eV):
siesta: Ebs     =      -352.153856
siesta: Eions   =      1510.441798
siesta: Ena     =       461.568745
siesta: Ekin    =       339.378125
siesta: Enl     =       134.014166
siesta: DEna    =        -0.468877
siesta: DUscf   =         1.757046
siesta: DUext   =         0.000000
siesta: Exc     =      -455.555647
siesta: eta*DQ  =         0.000000
siesta: Emadel  =         0.000000
siesta: Emeta   =         0.000000
siesta: Emolmec =         0.000000
siesta: Ekinion =         0.000000
siesta: Eharris =     -1028.735827
siesta: Etot    =     -1029.748239
siesta: FreeEng =     -1029.748239

siesta: iscf   Eharris(eV)      E_KS(eV)   FreeEng(eV)   dDmax  Ef(eV)
siesta:    1    -1028.7358    -1029.7482    -1029.7482  0.0738 -5.2829
timer: Routine,Calls,Time,% = IterSCF        1      23.821  97.32
elaps: Routine,Calls,Wall,% = IterSCF        1      23.910  97.32
siesta:    2    -1028.7332    -1028.7308    -1028.7315  0.0145 -5.3040
siesta:    3    -1028.7323    -1028.8424    -1028.8429  0.0111 -5.3000
siesta:    4    -1028.7323    -1028.7587    -1028.7593  0.0030 -5.2998
siesta:    5    -1028.7323    -1028.7380    -1028.7385  0.0008 -5.2996

siesta: E_KS(eV) =            -1028.7320

siesta: E_KS - E_eggbox =     -1028.7320

siesta: Atomic forces (eV/Ang):
----------------------------------------
   Tot   -0.006005   -0.006007   -0.006022
----------------------------------------
   Max    1.930230
   Res    1.316636    sqrt( Sum f_i^2 / 3N )
----------------------------------------
   Max    1.930230    constrained

Stress-tensor-Voigt (kbar):     -186.33     -186.33     -186.33       37.91       37.91       37.91
(Free)E + p*V (eV/cell)    -1011.9039
Target enthalpy (eV/cell)    -1028.7325

siesta: Stress tensor (static) (eV/Ang**3):
        -0.116297    0.023662    0.023662
         0.023662   -0.116297    0.023662
         0.023662    0.023662   -0.116298

siesta: Pressure (static):        186.33107008  kBar

siesta: Stress tensor (total) (eV/Ang**3):
        -0.116297    0.023662    0.023662
         0.023662   -0.116297    0.023662
         0.023662    0.023662   -0.116298

siesta: Pressure (total):        186.33107008  kBar

mulliken: Mulliken Atomic and Orbital Populations:

Species: Si                  
Atom  Qatom  Qorb
               3s      3s      3py     3pz     3px     3py     3pz     3px     
               3Pdxy   3Pdyz   3Pdz2   3Pdxz   3Pdx2-y2
   1  4.085   0.401   0.704   0.108   0.108   0.108   0.659   0.659   0.659
              0.155   0.155   0.106   0.155   0.106
   2  3.947   0.627   0.582   0.140   0.140   0.140   0.591   0.591   0.591
              0.130   0.130   0.077   0.130   0.077
   3  3.971   0.552   0.618   0.104   0.170   0.104   0.626   0.585   0.626
              0.142   0.135   0.079   0.135   0.092
   4  4.018   0.480   0.658   0.136   0.061   0.136   0.625   0.670   0.625
              0.142   0.147   0.103   0.147   0.088
   5  3.971   0.552   0.618   0.170   0.104   0.104   0.585   0.626   0.626
              0.135   0.135   0.089   0.142   0.083
   6  4.018   0.480   0.658   0.061   0.136   0.136   0.670   0.625   0.625
              0.147   0.147   0.092   0.142   0.100
   7  3.971   0.552   0.618   0.104   0.104   0.170   0.626   0.626   0.585
              0.135   0.142   0.089   0.135   0.083
   8  4.018   0.480   0.658   0.136   0.136   0.061   0.625   0.625   0.670
              0.147   0.142   0.092   0.147   0.100

mulliken: Qtot =       32.000

cgvc: No target stress found, assuming hydrostatic MD.TargetPressure.

cgvc: Target stress (kBar)
cgvc:        -0.000       0.000       0.000
cgvc:         0.000      -0.000       0.000
cgvc:         0.000       0.000      -0.000

* Maximum dynamic memory allocated =    72 MB

siesta:                 ==============================
                            Begin CG move =      1
                        ==============================

outcoor: Atomic coordinates (Ang):                          
    0.02136448    0.02136445    0.02136441   1       1  Si
    1.36926855    1.36926850    1.36926847   1       2  Si
    2.73475192    2.73475188    0.01087939   1       3  Si
    4.08069358    4.08069365    1.36610777   1       4  Si
    2.73475191    0.01087955    2.73475194   1       5  Si
    4.08069355    1.36610773    4.08069366   1       6  Si
    0.01087959    2.73475188    2.73475194   1       7  Si
    1.36610772    4.08069357    4.08069363   1       8  Si
 Kpoints in:          108 . Kpoints trimmed:          108

siesta: k-grid: Number of k-points =   108
siesta: k-grid: Cutoff (effective) =    15.878 Ang
siesta: k-grid: Supercell and displacements
siesta: k-grid:    0   6   0      0.500
siesta: k-grid:    6   0   0      0.500
siesta: k-grid:    0   0   6      0.500
Naive supercell factors:     5    5    5

superc: Internal auxiliary supercell:     5 x     5 x     5  =     125
superc: Number of atoms, orbitals, and projectors:   1000  13000  16000

outcell: Unit cell vectors (Ang):
        5.292625   -0.008673   -0.008673
       -0.008673    5.292625   -0.008673
       -0.008673   -0.008673    5.292625

outcell: Cell vector modules (Ang)   :    5.292639    5.292639    5.292639
outcell: Cell angles (23,13,12) (deg):     90.1876     90.1876     90.1876
outcell: Cell volume (Ang**3)        :    148.2552
New_DM. Step:     2
Re-using DM from previous geometry...
Re-using DM without extrapolation (not allowed)
Density Matrix sparsity pattern changed.

InitMesh: MESH =    32 x    32 x    32 =       32768
InitMesh: Mesh cutoff (required, used) =   100.000   101.034 Ry

siesta: iscf   Eharris(eV)      E_KS(eV)   FreeEng(eV)   dDmax  Ef(eV)
siesta:    1    -1029.5488    -1028.4824    -1028.4829  0.0362 -5.2710
siesta:    2    -1029.5904    -1029.5066    -1029.5066  0.0337 -5.2411
siesta:    3    -1029.5349    -1029.3961    -1029.3962  0.0081 -5.2611
siesta:    4    -1029.5345    -1029.5205    -1029.5205  0.0004 -5.2632

siesta: E_KS(eV) =            -1029.5247

siesta: Atomic forces (eV/Ang):
----------------------------------------
   Tot    0.003301    0.003297    0.003304
----------------------------------------
   Max    1.186076
   Res    0.854537    sqrt( Sum f_i^2 / 3N )
----------------------------------------
   Max    1.186076    constrained

Stress-tensor-Voigt (kbar):     -144.44     -144.44     -144.44       17.28       17.28       17.28
(Free)E + p*V (eV/cell)    -1016.1595
Target enthalpy (eV/cell)    -1029.5247

siesta: Stress tensor (static) (eV/Ang**3):
        -0.090150    0.010785    0.010785
         0.010785   -0.090150    0.010785
         0.010785    0.010785   -0.090151

siesta: Pressure (static):        144.43839322  kBar

siesta: Stress tensor (total) (eV/Ang**3):
        -0.090150    0.010785    0.010785
         0.010785   -0.090150    0.010785
         0.010785    0.010785   -0.090151

siesta: Pressure (total):        144.43839322  kBar

mulliken: Mulliken Atomic and Orbital Populations:

Species: Si                  
Atom  Qatom  Qorb
               3s      3s      3py     3pz     3px     3py     3pz     3px     
               3Pdxy   3Pdyz   3Pdz2   3Pdxz   3Pdx2-y2
   1  4.049   0.464   0.666   0.125   0.125   0.125   0.637   0.637   0.637
              0.147   0.147   0.097   0.147   0.097
   2  3.966   0.625   0.580   0.161   0.161   0.161   0.580   0.580   0.580
              0.129   0.129   0.077   0.129   0.077
   3  3.983   0.564   0.611   0.130   0.178   0.130   0.610   0.579   0.610
              0.138   0.133   0.079   0.133   0.087
   4  4.012   0.509   0.641   0.152   0.101   0.152   0.608   0.639   0.608
              0.138   0.143   0.095   0.143   0.085
   5  3.983   0.564   0.611   0.178   0.130   0.130   0.579   0.610   0.610
              0.133   0.133   0.085   0.138   0.081
   6  4.012   0.509   0.641   0.101   0.152   0.152   0.639   0.608   0.608
              0.143   0.143   0.087   0.138   0.092
   7  3.983   0.564   0.611   0.130   0.130   0.178   0.610   0.610   0.579
              0.133   0.138   0.085   0.133   0.081
   8  4.012   0.509   0.641   0.152   0.152   0.101   0.608   0.608   0.639
              0.143   0.138   0.087   0.143   0.092

mulliken: Qtot =       32.000

* Maximum dynamic memory allocated =    78 MB

siesta:                 ==============================
                            Begin CG move =      2
                        ==============================

outcoor: Atomic coordinates (Ang):                          
    0.05597355    0.05597347    0.05597337   1       1  Si
    1.38415245    1.38415232    1.38415223   1       2  Si
    2.75814463    2.75814451    0.02898999   1       3  Si
    4.08111924    4.08111941    1.37648392   1       4  Si
    2.75814461    0.02899041    2.75814468   1       5  Si
    4.08111917    1.37648379    4.08111944   1       6  Si
    0.02899052    2.75814453    2.75814468   1       7  Si
    1.37648377    4.08111922    4.08111936   1       8  Si
 Kpoints in:          108 . Kpoints trimmed:          108

siesta: k-grid: Number of k-points =   108
siesta: k-grid: Cutoff (effective) =    16.083 Ang
siesta: k-grid: Supercell and displacements
siesta: k-grid:    0   6   0      0.500
siesta: k-grid:    6   0   0      0.500
siesta: k-grid:    0   0   6      0.500
Naive supercell factors:     5    5    5

superc: Internal auxiliary supercell:     5 x     5 x     5  =     125
superc: Number of atoms, orbitals, and projectors:   1000  13000  16000

outcell: Unit cell vectors (Ang):
        5.360825   -0.022549   -0.022549
       -0.022549    5.360825   -0.022549
       -0.022549   -0.022549    5.360825

outcell: Cell vector modules (Ang)   :    5.360920    5.360920    5.360920
outcell: Cell angles (23,13,12) (deg):     90.4810     90.4810     90.4810
outcell: Cell volume (Ang**3)        :    154.0536
New_DM. Step:     3
Re-using DM from previous geometry...
Re-using DM without extrapolation (not allowed)
Density Matrix sparsity pattern changed.

InitMesh: MESH =    36 x    36 x    36 =       46656
InitMesh: Mesh cutoff (required, used) =   100.000   124.649 Ry

siesta: iscf   Eharris(eV)      E_KS(eV)   FreeEng(eV)   dDmax  Ef(eV)
siesta:    1    -1030.3047    -1028.7788    -1028.7788  0.0467 -5.2131
siesta:    2    -1030.4546    -1030.1503    -1030.1503  0.0563 -5.1980
siesta:    3    -1030.2533    -1029.9387    -1029.9387  0.0155 -5.2083
siesta:    4    -1030.2525    -1030.2173    -1030.2173  0.0011 -5.2116
siesta:    5    -1030.2525    -1030.2277    -1030.2277  0.0007 -5.2110

siesta: E_KS(eV) =            -1030.2451

siesta: Atomic forces (eV/Ang):
----------------------------------------
   Tot   -0.004287   -0.004278   -0.004267
----------------------------------------
   Max    0.420649
   Res    0.299058    sqrt( Sum f_i^2 / 3N )
----------------------------------------
   Max    0.420649    constrained

Stress-tensor-Voigt (kbar):      -90.72      -90.72      -90.72       -9.42       -9.42       -9.42
(Free)E + p*V (eV/cell)    -1021.5217
Target enthalpy (eV/cell)    -1030.2451

siesta: Stress tensor (static) (eV/Ang**3):
        -0.056625   -0.005878   -0.005878
        -0.005878   -0.056625   -0.005878
        -0.005878   -0.005878   -0.056625

siesta: Pressure (static):         90.72476340  kBar

siesta: Stress tensor (total) (eV/Ang**3):
        -0.056625   -0.005878   -0.005878
        -0.005878   -0.056625   -0.005878
        -0.005878   -0.005878   -0.056625

siesta: Pressure (total):         90.72476340  kBar

mulliken: Mulliken Atomic and Orbital Populations:

Species: Si                  
Atom  Qatom  Qorb
               3s      3s      3py     3pz     3px     3py     3pz     3px     
               3Pdxy   3Pdyz   3Pdz2   3Pdxz   3Pdx2-y2
   1  4.009   0.547   0.619   0.167   0.167   0.167   0.590   0.590   0.590
              0.135   0.135   0.083   0.135   0.083
   2  3.991   0.613   0.586   0.187   0.187   0.187   0.566   0.566   0.566
              0.127   0.127   0.076   0.127   0.076
   3  3.997   0.577   0.604   0.173   0.188   0.173   0.580   0.570   0.580
              0.132   0.130   0.079   0.130   0.081
   4  4.003   0.557   0.614   0.177   0.152   0.177   0.582   0.598   0.582
              0.132   0.134   0.085   0.134   0.080
   5  3.997   0.577   0.604   0.188   0.173   0.173   0.570   0.580   0.580
              0.130   0.130   0.080   0.132   0.079
   6  4.003   0.557   0.614   0.152   0.177   0.177   0.598   0.582   0.582
              0.134   0.134   0.081   0.132   0.083
   7  3.997   0.577   0.604   0.173   0.173   0.188   0.580   0.580   0.570
              0.130   0.132   0.080   0.130   0.079
   8  4.003   0.557   0.614   0.177   0.177   0.152   0.582   0.582   0.598
              0.134   0.132   0.081   0.134   0.083

mulliken: Qtot =       32.000

* Maximum dynamic memory allocated =    81 MB

siesta:                 ==============================
                            Begin CG move =      3
                        ==============================

outcoor: Atomic coordinates (Ang):                          
    0.11243839    0.11243821    0.11243801   1       1  Si
    1.40810549    1.40810523    1.40810506   1       2  Si
    2.79503442    2.79503418    0.05976813   1       3  Si
    4.08004909    4.08004943    1.39463123   1       4  Si
    2.79503438    0.05976898    2.79503452   1       5  Si
    4.08004894    1.39463098    4.08004948   1       6  Si
    0.05976919    2.79503423    2.79503453   1       7  Si
    1.39463093    4.08004905    4.08004931   1       8  Si
 Kpoints in:          108 . Kpoints trimmed:          108

siesta: k-grid: Number of k-points =   108
siesta: k-grid: Cutoff (effective) =    16.411 Ang
siesta: k-grid: Supercell and displacements
siesta: k-grid:    0   6   0      0.500
siesta: k-grid:    6   0   0      0.500
siesta: k-grid:    0   0   6      0.500
Naive supercell factors:     5    5    5

superc: Internal auxiliary supercell:     5 x     5 x     5  =     125
superc: Number of atoms, orbitals, and projectors:   1000  13000  16000

outcell: Unit cell vectors (Ang):
        5.469945   -0.044751   -0.044751
       -0.044751    5.469945   -0.044751
       -0.044751   -0.044751    5.469945

outcell: Cell vector modules (Ang)   :    5.470311    5.470311    5.470312
outcell: Cell angles (23,13,12) (deg):     90.9336     90.9336     90.9336
outcell: Cell volume (Ang**3)        :    163.6294
New_DM. Step:     4
Re-using DM from previous geometry...
Re-using DM without extrapolation (not allowed)
Density Matrix sparsity pattern changed.

InitMesh: MESH =    36 x    36 x    36 =       46656
InitMesh: Mesh cutoff (required, used) =   100.000   119.761 Ry

siesta: iscf   Eharris(eV)      E_KS(eV)   FreeEng(eV)   dDmax  Ef(eV)
siesta:    1    -1030.3932    -1028.4447    -1028.4447  0.0587 -4.9930
siesta:    2    -1030.9669    -1029.8096    -1029.8096  0.1028 -5.0751
siesta:    3    -1030.1970    -1029.5738    -1029.5738  0.0279 -5.0330
siesta:    4    -1030.1959    -1030.0824    -1030.0824  0.0030 -5.0350
siesta:    5    -1030.1958    -1030.1228    -1030.1228  0.0017 -5.0349
siesta:    6    -1030.1957    -1030.1720    -1030.1720  0.0004 -5.0344

siesta: E_KS(eV) =            -1030.1805

siesta: Atomic forces (eV/Ang):
----------------------------------------
   Tot   -0.001200   -0.001195   -0.001212
----------------------------------------
   Max    1.354564
   Res    1.011269    sqrt( Sum f_i^2 / 3N )
----------------------------------------
   Max    1.354564    constrained

Stress-tensor-Voigt (kbar):      -32.76      -32.76      -32.76      -40.91      -40.91      -40.91
(Free)E + p*V (eV/cell)    -1026.8346
Target enthalpy (eV/cell)    -1030.1805

siesta: Stress tensor (static) (eV/Ang**3):
        -0.020448   -0.025532   -0.025532
        -0.025532   -0.020448   -0.025532
        -0.025532   -0.025532   -0.020448

siesta: Pressure (static):         32.76148348  kBar

siesta: Stress tensor (total) (eV/Ang**3):
        -0.020448   -0.025532   -0.025532
        -0.025532   -0.020448   -0.025532
        -0.025532   -0.025532   -0.020448

siesta: Pressure (total):         32.76148348  kBar

mulliken: Mulliken Atomic and Orbital Populations:

Species: Si                  
Atom  Qatom  Qorb
               3s      3s      3py     3pz     3px     3py     3pz     3px     
               3Pdxy   3Pdyz   3Pdz2   3Pdxz   3Pdx2-y2
   1  4.002   0.678   0.554   0.252   0.252   0.252   0.511   0.511   0.511
              0.115   0.115   0.068   0.115   0.068
   2  4.005   0.584   0.601   0.209   0.209   0.209   0.553   0.553   0.553
              0.126   0.126   0.077   0.126   0.077
   3  4.000   0.593   0.596   0.224   0.190   0.224   0.542   0.563   0.542
              0.123   0.126   0.080   0.126   0.073
   4  3.997   0.622   0.581   0.222   0.238   0.222   0.538   0.528   0.538
              0.123   0.121   0.072   0.121   0.074
   5  4.000   0.593   0.596   0.190   0.224   0.224   0.563   0.542   0.542
              0.126   0.126   0.074   0.123   0.078
   6  3.997   0.622   0.581   0.238   0.222   0.222   0.528   0.538   0.538
              0.121   0.121   0.073   0.123   0.072
   7  4.000   0.593   0.596   0.224   0.224   0.190   0.542   0.542   0.563
              0.126   0.123   0.074   0.126   0.078
   8  3.997   0.622   0.581   0.222   0.222   0.238   0.538   0.538   0.528
              0.121   0.123   0.073   0.121   0.072

mulliken: Qtot =       32.000

* Maximum dynamic memory allocated =    88 MB

siesta:                 ==============================
                            Begin CG move =      4
                        ==============================

outcoor: Atomic coordinates (Ang):                          
    0.08468541    0.08468527    0.08468512   1       1  Si
    1.39638213    1.39638193    1.39638180   1       2  Si
    2.77709509    2.77709491    0.04445482   1       3  Si
    4.08084118    4.08084144    1.38552790   1       4  Si
    2.77709506    0.04445546    2.77709517   1       5  Si
    4.08084106    1.38552771    4.08084147   1       6  Si
    0.04445561    2.77709494    2.77709517   1       7  Si
    1.38552768    4.08084115    4.08084135   1       8  Si
 Kpoints in:          108 . Kpoints trimmed:          108

siesta: k-grid: Number of k-points =   108
siesta: k-grid: Cutoff (effective) =    16.251 Ang
siesta: k-grid: Supercell and displacements
siesta: k-grid:    0   6   0      0.500
siesta: k-grid:    6   0   0      0.500
siesta: k-grid:    0   0   6      0.500
Naive supercell factors:     5    5    5

superc: Internal auxiliary supercell:     5 x     5 x     5  =     125
superc: Number of atoms, orbitals, and projectors:   1000  13000  16000

outcell: Unit cell vectors (Ang):
        5.416636   -0.033904   -0.033904
       -0.033904    5.416636   -0.033904
       -0.033904   -0.033904    5.416636

outcell: Cell vector modules (Ang)   :    5.416848    5.416848    5.416848
outcell: Cell angles (23,13,12) (deg):     90.7150     90.7150     90.7150
outcell: Cell volume (Ang**3)        :    158.9050
New_DM. Step:     5
Re-using DM from previous geometry...
Re-using DM without extrapolation (not allowed)
Density Matrix sparsity pattern changed.

InitMesh: MESH =    36 x    36 x    36 =       46656
InitMesh: Mesh cutoff (required, used) =   100.000   122.110 Ry

siesta: iscf   Eharris(eV)      E_KS(eV)   FreeEng(eV)   dDmax  Ef(eV)
siesta:    1    -1030.4373    -1031.0625    -1031.0625  0.0392 -5.0951
siesta:    2    -1030.5583    -1030.3112    -1030.3112  0.0478 -5.0851
siesta:    3    -1030.3945    -1030.5180    -1030.5180  0.0103 -5.0849
siesta:    4    -1030.3942    -1030.3703    -1030.3703  0.0017 -5.0836
siesta:    5    -1030.3941    -1030.3762    -1030.3762  0.0011 -5.0832
siesta:    6    -1030.3941    -1030.3895    -1030.3895  0.0002 -5.0830

siesta: E_KS(eV) =            -1030.3918

siesta: Atomic forces (eV/Ang):
----------------------------------------
   Tot   -0.001209   -0.001200   -0.001171
----------------------------------------
   Max    0.679312
   Res    0.554298    sqrt( Sum f_i^2 / 3N )
----------------------------------------
   Max    0.679312    constrained

Stress-tensor-Voigt (kbar):      -56.30      -56.30      -56.30      -27.33      -27.33      -27.33
(Free)E + p*V (eV/cell)    -1024.8075
Target enthalpy (eV/cell)    -1030.3918

siesta: Stress tensor (static) (eV/Ang**3):
        -0.035142   -0.017057   -0.017057
        -0.017057   -0.035142   -0.017057
        -0.017057   -0.017057   -0.035142

siesta: Pressure (static):         56.30485665  kBar

siesta: Stress tensor (total) (eV/Ang**3):
        -0.035142   -0.017057   -0.017057
        -0.017057   -0.035142   -0.017057
        -0.017057   -0.017057   -0.035142

siesta: Pressure (total):         56.30485665  kBar

mulliken: Mulliken Atomic and Orbital Populations:

Species: Si                  
Atom  Qatom  Qorb
               3s      3s      3py     3pz     3px     3py     3pz     3px     
               3Pdxy   3Pdyz   3Pdz2   3Pdxz   3Pdx2-y2
   1  3.996   0.617   0.583   0.208   0.208   0.208   0.550   0.550   0.550
              0.124   0.124   0.075   0.124   0.075
   2  4.000   0.600   0.592   0.202   0.202   0.202   0.557   0.557   0.557
              0.126   0.126   0.076   0.126   0.076
   3  4.001   0.590   0.597   0.202   0.189   0.202   0.559   0.567   0.559
              0.127   0.128   0.079   0.128   0.076
   4  4.000   0.596   0.594   0.200   0.196   0.200   0.559   0.562   0.559
              0.127   0.127   0.077   0.127   0.077
   5  4.001   0.590   0.597   0.189   0.202   0.202   0.567   0.559   0.559
              0.128   0.128   0.077   0.127   0.078
   6  4.000   0.596   0.594   0.196   0.200   0.200   0.562   0.559   0.559
              0.127   0.127   0.077   0.127   0.077
   7  4.001   0.590   0.597   0.202   0.202   0.189   0.559   0.559   0.567
              0.128   0.127   0.077   0.128   0.078
   8  4.000   0.596   0.594   0.200   0.200   0.196   0.559   0.559   0.562
              0.127   0.127   0.077   0.127   0.077

mulliken: Qtot =       32.000

cgvc: Finished line minimization    1.  Mean atomic displacement =    0.1550

* Maximum dynamic memory allocated =    89 MB

siesta:                 ==============================
                            Begin CG move =      5
                        ==============================

outcoor: Atomic coordinates (Ang):                          
    0.06412864    0.06412879    0.06413001   1       1  Si
    1.47880518    1.47880506    1.47880443   1       2  Si
    2.80910195    2.80910209    0.07099333   1       3  Si
    4.21550047    4.21550031    1.47725399   1       4  Si
    2.80910210    0.07099203    2.80910313   1       5  Si
    4.21550025    1.47725370    4.21550024   1       6  Si
    0.07099199    2.80910253    2.80910291   1       7  Si
    1.47725355    4.21550030    4.21550041   1       8  Si
 Kpoints in:          108 . Kpoints trimmed:          108

siesta: k-grid: Number of k-points =   108
siesta: k-grid: Cutoff (effective) =    16.583 Ang
siesta: k-grid: Supercell and displacements
siesta: k-grid:    6   0   0      0.500
siesta: k-grid:    0   6   0      0.500
siesta: k-grid:    0   0   6      0.500
Naive supercell factors:     5    5    5

superc: Internal auxiliary supercell:     5 x     5 x     5  =     125
superc: Number of atoms, orbitals, and projectors:   1000  13000  16000

outcell: Unit cell vectors (Ang):
        5.527762   -0.006854   -0.006854
       -0.006854    5.527762   -0.006854
       -0.006854   -0.006854    5.527763

outcell: Cell vector modules (Ang)   :    5.527771    5.527771    5.527771
outcell: Cell angles (23,13,12) (deg):     90.1420     90.1420     90.1420
outcell: Cell volume (Ang**3)        :    168.9064
New_DM. Step:     6
Re-using DM from previous geometry...
Re-using DM without extrapolation (not allowed)
Density Matrix sparsity pattern changed.

InitMesh: MESH =    36 x    36 x    36 =       46656
InitMesh: Mesh cutoff (required, used) =   100.000   117.223 Ry

siesta: iscf   Eharris(eV)      E_KS(eV)   FreeEng(eV)   dDmax  Ef(eV)
siesta:    1    -1030.6053    -1028.8323    -1028.8323  0.0523 -4.9127
siesta:    2    -1030.6422    -1030.5515    -1030.5515  0.0423 -4.9297
siesta:    3    -1030.5838    -1030.4889    -1030.4889  0.0049 -4.9216
siesta:    4    -1030.5832    -1030.5728    -1030.5728  0.0019 -4.9227
siesta:    5    -1030.5831    -1030.5861    -1030.5861  0.0013 -4.9234
siesta:    6    -1030.5831    -1030.5810    -1030.5810  0.0003 -4.9238

siesta: E_KS(eV) =            -1030.5804

siesta: Atomic forces (eV/Ang):
----------------------------------------
   Tot   -0.001028   -0.001030   -0.001018
----------------------------------------
   Max    0.593049
   Res    0.405352    sqrt( Sum f_i^2 / 3N )
----------------------------------------
   Max    0.593049    constrained

Stress-tensor-Voigt (kbar):        2.75        2.75        2.75        7.85        7.86        7.86
(Free)E + p*V (eV/cell)    -1030.8709
Target enthalpy (eV/cell)    -1030.5804

siesta: Stress tensor (static) (eV/Ang**3):
         0.001719    0.004903    0.004903
         0.004903    0.001719    0.004903
         0.004903    0.004903    0.001720

siesta: Pressure (static):         -2.75494737  kBar

siesta: Stress tensor (total) (eV/Ang**3):
         0.001719    0.004903    0.004903
         0.004903    0.001719    0.004903
         0.004903    0.004903    0.001720

siesta: Pressure (total):         -2.75494737  kBar

mulliken: Mulliken Atomic and Orbital Populations:

Species: Si                  
Atom  Qatom  Qorb
               3s      3s      3py     3pz     3px     3py     3pz     3px     
               3Pdxy   3Pdyz   3Pdz2   3Pdxz   3Pdx2-y2
   1  3.998   0.674   0.555   0.262   0.262   0.262   0.502   0.502   0.502
              0.115   0.115   0.066   0.115   0.066
   2  4.003   0.618   0.582   0.237   0.237   0.237   0.528   0.528   0.528
              0.121   0.121   0.072   0.121   0.072
   3  4.001   0.634   0.574   0.248   0.234   0.248   0.519   0.528   0.519
              0.118   0.120   0.072   0.120   0.069
   4  3.999   0.652   0.566   0.248   0.260   0.248   0.515   0.507   0.515
              0.118   0.116   0.067   0.116   0.070
   5  4.001   0.634   0.574   0.234   0.248   0.248   0.528   0.519   0.519
              0.120   0.120   0.070   0.118   0.071
   6  3.999   0.652   0.566   0.260   0.248   0.248   0.507   0.515   0.515
              0.116   0.116   0.069   0.118   0.068
   7  4.001   0.634   0.574   0.248   0.248   0.234   0.519   0.519   0.528
              0.120   0.118   0.070   0.120   0.071
   8  3.999   0.652   0.566   0.248   0.248   0.260   0.515   0.515   0.507
              0.116   0.118   0.069   0.116   0.068

mulliken: Qtot =       32.000

* Maximum dynamic memory allocated =    89 MB

siesta:                 ==============================
                            Begin CG move =      6
                        ==============================

outcoor: Atomic coordinates (Ang):                          
    0.07017646    0.07017652    0.07017735   1       1  Si
    1.45488525    1.45488511    1.45488463   1       2  Si
    2.80011340    2.80011345    0.06346165   1       3  Si
    4.17667827    4.17667823    1.45077006   1       4  Si
    2.80011350    0.06346092    2.80011426   1       5  Si
    4.17667808    1.45076980    4.17667820   1       6  Si
    0.06346093    2.80011377    2.80011411   1       7  Si
    1.45076969    4.17667814    4.17667828   1       8  Si
 Kpoints in:          108 . Kpoints trimmed:          108

siesta: k-grid: Number of k-points =   108
siesta: k-grid: Cutoff (effective) =    16.488 Ang
siesta: k-grid: Supercell and displacements
siesta: k-grid:    6   0   0      0.500
siesta: k-grid:    0   6   0      0.500
siesta: k-grid:    0   0   6      0.500
Naive supercell factors:     5    5    5

superc: Internal auxiliary supercell:     5 x     5 x     5  =     125
superc: Number of atoms, orbitals, and projectors:   1000  13000  16000

outcell: Unit cell vectors (Ang):
        5.495837   -0.014625   -0.014625
       -0.014625    5.495837   -0.014625
       -0.014625   -0.014625    5.495838

outcell: Cell vector modules (Ang)   :    5.495876    5.495876    5.495877
outcell: Cell angles (23,13,12) (deg):     90.3045     90.3045     90.3045
outcell: Cell volume (Ang**3)        :    165.9940
New_DM. Step:     7
Re-using DM from previous geometry...
Re-using DM without extrapolation (not allowed)
Density Matrix sparsity pattern changed.

InitMesh: MESH =    36 x    36 x    36 =       46656
InitMesh: Mesh cutoff (required, used) =   100.000   118.593 Ry

siesta: iscf   Eharris(eV)      E_KS(eV)   FreeEng(eV)   dDmax  Ef(eV)
siesta:    1    -1030.6364    -1031.0598    -1031.0598  0.0331 -5.0066
siesta:    2    -1030.6392    -1030.6320    -1030.6320  0.0118 -5.0034
siesta:    3    -1030.6346    -1030.6439    -1030.6439  0.0018 -5.0042
siesta:    4    -1030.6346    -1030.6336    -1030.6336  0.0006 -5.0039

siesta: E_KS(eV) =            -1030.6317

siesta: Atomic forces (eV/Ang):
----------------------------------------
   Tot   -0.003347   -0.003333   -0.003348
----------------------------------------
   Max    0.370252
   Res    0.224164    sqrt( Sum f_i^2 / 3N )
----------------------------------------
   Max    0.370252    constrained

Stress-tensor-Voigt (kbar):      -11.04      -11.04      -11.04        0.31        0.31        0.31
(Free)E + p*V (eV/cell)    -1029.4879
Target enthalpy (eV/cell)    -1030.6317

siesta: Stress tensor (static) (eV/Ang**3):
        -0.006891    0.000193    0.000193
         0.000193   -0.006891    0.000193
         0.000193    0.000193   -0.006891

siesta: Pressure (static):         11.04080694  kBar

siesta: Stress tensor (total) (eV/Ang**3):
        -0.006891    0.000193    0.000193
         0.000193   -0.006891    0.000193
         0.000193    0.000193   -0.006891

siesta: Pressure (total):         11.04080694  kBar

mulliken: Mulliken Atomic and Orbital Populations:

Species: Si                  
Atom  Qatom  Qorb
               3s      3s      3py     3pz     3px     3py     3pz     3px     
               3Pdxy   3Pdyz   3Pdz2   3Pdxz   3Pdx2-y2
   1  3.998   0.658   0.562   0.249   0.249   0.249   0.514   0.514   0.514
              0.117   0.117   0.068   0.117   0.068
   2  4.002   0.615   0.583   0.229   0.229   0.229   0.534   0.534   0.534
              0.122   0.122   0.073   0.122   0.073
   3  4.001   0.622   0.580   0.236   0.224   0.236   0.529   0.537   0.529
              0.120   0.122   0.074   0.122   0.071
   4  3.999   0.637   0.573   0.235   0.244   0.235   0.527   0.521   0.527
              0.120   0.119   0.070   0.119   0.071
   5  4.001   0.622   0.580   0.224   0.236   0.236   0.537   0.529   0.529
              0.122   0.122   0.072   0.120   0.073
   6  3.999   0.637   0.573   0.244   0.235   0.235   0.521   0.527   0.527
              0.119   0.119   0.071   0.120   0.070
   7  4.001   0.622   0.580   0.236   0.236   0.224   0.529   0.529   0.537
              0.122   0.120   0.072   0.122   0.073
   8  3.999   0.637   0.573   0.235   0.235   0.244   0.527   0.527   0.521
              0.119   0.120   0.071   0.119   0.070

mulliken: Qtot =       32.000

cgvc: Finished line minimization    2.  Mean atomic displacement =    0.1104

* Maximum dynamic memory allocated =    89 MB

siesta:                 ==============================
                            Begin CG move =      7
                        ==============================

outcoor: Atomic coordinates (Ang):                          
    0.06568882    0.06568947    0.06568794   1       1  Si
    1.44987345    1.44987354    1.44987576   1       2  Si
    2.86623154    2.86623154    0.07654128   1       3  Si
    4.26030052    4.26030065    1.44230573   1       4  Si
    2.86623088    0.07654280    2.86623020   1       5  Si
    4.26029962    1.44230533    4.26029973   1       6  Si
    0.07654227    2.86623145    2.86623042   1       7  Si
    1.44230480    4.26029990    4.26030025   1       8  Si
 Kpoints in:          108 . Kpoints trimmed:          108

siesta: k-grid: Number of k-points =   108
siesta: k-grid: Cutoff (effective) =    16.713 Ang
siesta: k-grid: Supercell and displacements
siesta: k-grid:    6   0   0      0.500
siesta: k-grid:    0   6   0      0.500
siesta: k-grid:    0   0   6      0.500
Naive supercell factors:     5    5    5

superc: Internal auxiliary supercell:     5 x     5 x     5  =     125
superc: Number of atoms, orbitals, and projectors:   1000  13000  16000

outcell: Unit cell vectors (Ang):
        5.570838   -0.004654   -0.004655
       -0.004654    5.570838   -0.004655
       -0.004655   -0.004655    5.570838

outcell: Cell vector modules (Ang)   :    5.570841    5.570842    5.570842
outcell: Cell angles (23,13,12) (deg):     90.0957     90.0957     90.0957
outcell: Cell volume (Ang**3)        :    172.8863
New_DM. Step:     8
Re-using DM from previous geometry...
Re-using DM without extrapolation (not allowed)
Density Matrix sparsity pattern changed.

InitMesh: MESH =    36 x    36 x    36 =       46656
InitMesh: Mesh cutoff (required, used) =   100.000   115.416 Ry

siesta: iscf   Eharris(eV)      E_KS(eV)   FreeEng(eV)   dDmax  Ef(eV)
siesta:    1    -1030.6780    -1029.5175    -1029.5175  0.0317 -4.9329
siesta:    2    -1030.8911    -1030.4805    -1030.4805  0.0818 -4.9601
siesta:    3    -1030.6133    -1030.2416    -1030.2416  0.0148 -4.9480
siesta:    4    -1030.6131    -1030.5720    -1030.5720  0.0022 -4.9513
siesta:    5    -1030.6131    -1030.5862    -1030.5862  0.0013 -4.9508
siesta:    6    -1030.6132    -1030.6040    -1030.6040  0.0003 -4.9503

siesta: E_KS(eV) =            -1030.6079

siesta: Atomic forces (eV/Ang):
----------------------------------------
   Tot    0.007618    0.007615    0.007620
----------------------------------------
   Max    0.405261
   Res    0.205160    sqrt( Sum f_i^2 / 3N )
----------------------------------------
   Max    0.405261    constrained

Stress-tensor-Voigt (kbar):       22.56       22.56       22.56       -3.33       -3.33       -3.33
(Free)E + p*V (eV/cell)    -1033.0420
Target enthalpy (eV/cell)    -1030.6079

siesta: Stress tensor (static) (eV/Ang**3):
         0.014079   -0.002077   -0.002078
        -0.002077    0.014079   -0.002078
        -0.002078   -0.002078    0.014079

siesta: Pressure (static):        -22.55802449  kBar

siesta: Stress tensor (total) (eV/Ang**3):
         0.014079   -0.002077   -0.002078
        -0.002077    0.014079   -0.002078
        -0.002078   -0.002078    0.014079

siesta: Pressure (total):        -22.55802449  kBar

mulliken: Mulliken Atomic and Orbital Populations:

Species: Si                  
Atom  Qatom  Qorb
               3s      3s      3py     3pz     3px     3py     3pz     3px     
               3Pdxy   3Pdyz   3Pdz2   3Pdxz   3Pdx2-y2
   1  4.000   0.626   0.579   0.249   0.249   0.249   0.517   0.517   0.517
              0.118   0.118   0.070   0.118   0.070
   2  4.000   0.674   0.555   0.271   0.271   0.271   0.496   0.496   0.496
              0.113   0.113   0.066   0.113   0.066
   3  4.000   0.674   0.555   0.264   0.282   0.264   0.501   0.489   0.501
              0.115   0.113   0.064   0.113   0.067
   4  4.000   0.657   0.564   0.266   0.260   0.266   0.502   0.505   0.502
              0.115   0.115   0.068   0.115   0.067
   5  4.000   0.674   0.555   0.282   0.264   0.264   0.489   0.501   0.501
              0.113   0.113   0.066   0.115   0.065
   6  4.000   0.657   0.564   0.260   0.266   0.266   0.505   0.502   0.502
              0.115   0.115   0.067   0.115   0.067
   7  4.000   0.674   0.555   0.264   0.264   0.282   0.501   0.501   0.489
              0.113   0.115   0.066   0.113   0.065
   8  4.000   0.657   0.564   0.266   0.266   0.260   0.502   0.502   0.505
              0.115   0.115   0.067   0.115   0.067

mulliken: Qtot =       32.000

* Maximum dynamic memory allocated =    89 MB

siesta:                 ==============================
                            Begin CG move =      8
                        ==============================

outcoor: Atomic coordinates (Ang):                          
    0.06824016    0.06824048    0.06824028   1       1  Si
    1.45282319    1.45282315    1.45282383   1       2  Si
    2.82890918    2.82890921    0.06914897   1       3  Si
    4.21316445    4.21316448    1.44720342   1       4  Si
    2.82890895    0.06914922    2.82890909   1       5  Si
    4.21316395    1.44720310    4.21316406   1       6  Si
    0.06914899    2.82890935    2.82890910   1       7  Si
    1.44720281    4.21316411    4.21316433   1       8  Si
 Kpoints in:          108 . Kpoints trimmed:          108

siesta: k-grid: Number of k-points =   108
siesta: k-grid: Cutoff (effective) =    16.586 Ang
siesta: k-grid: Supercell and displacements
siesta: k-grid:    6   0   0      0.500
siesta: k-grid:    0   6   0      0.500
siesta: k-grid:    0   0   6      0.500
Naive supercell factors:     5    5    5

superc: Internal auxiliary supercell:     5 x     5 x     5  =     125
superc: Number of atoms, orbitals, and projectors:   1000  13000  16000

outcell: Unit cell vectors (Ang):
        5.528599   -0.010270   -0.010270
       -0.010270    5.528599   -0.010270
       -0.010270   -0.010270    5.528599

outcell: Cell vector modules (Ang)   :    5.528618    5.528618    5.528618
outcell: Cell angles (23,13,12) (deg):     90.2127     90.2127     90.2127
outcell: Cell volume (Ang**3)        :    168.9821
New_DM. Step:     9
Re-using DM from previous geometry...
Re-using DM without extrapolation (not allowed)
Density Matrix sparsity pattern changed.

InitMesh: MESH =    36 x    36 x    36 =       46656
InitMesh: Mesh cutoff (required, used) =   100.000   117.189 Ry

siesta: iscf   Eharris(eV)      E_KS(eV)   FreeEng(eV)   dDmax  Ef(eV)
siesta:    1    -1030.6900    -1031.2140    -1031.2140  0.0170 -4.9958
siesta:    2    -1030.7505    -1030.6323    -1030.6323  0.0410 -4.9880
siesta:    3    -1030.6710    -1030.8245    -1030.8245  0.0082 -4.9882
siesta:    4    -1030.6710    -1030.6639    -1030.6639  0.0010 -4.9772

siesta: E_KS(eV) =            -1030.6648

siesta: Atomic forces (eV/Ang):
----------------------------------------
   Tot    0.001222    0.001221    0.001232
----------------------------------------
   Max    0.069751
   Res    0.050653    sqrt( Sum f_i^2 / 3N )
----------------------------------------
   Max    0.069751    constrained

Stress-tensor-Voigt (kbar):        3.79        3.79        3.79       -1.53       -1.53       -1.53
(Free)E + p*V (eV/cell)    -1031.0645
Target enthalpy (eV/cell)    -1030.6648

siesta: Stress tensor (static) (eV/Ang**3):
         0.002365   -0.000955   -0.000955
        -0.000955    0.002365   -0.000955
        -0.000955   -0.000955    0.002365

siesta: Pressure (static):         -3.78951786  kBar

siesta: Stress tensor (total) (eV/Ang**3):
         0.002365   -0.000955   -0.000955
        -0.000955    0.002365   -0.000955
        -0.000955   -0.000955    0.002365

siesta: Pressure (total):         -3.78951786  kBar

mulliken: Mulliken Atomic and Orbital Populations:

Species: Si                  
Atom  Qatom  Qorb
               3s      3s      3py     3pz     3px     3py     3pz     3px     
               3Pdxy   3Pdyz   3Pdz2   3Pdxz   3Pdx2-y2
   1  4.000   0.644   0.570   0.249   0.249   0.249   0.516   0.516   0.516
              0.118   0.118   0.069   0.118   0.069
   2  4.000   0.638   0.572   0.246   0.246   0.246   0.519   0.519   0.519
              0.118   0.118   0.070   0.118   0.070
   3  4.000   0.643   0.571   0.248   0.248   0.248   0.517   0.517   0.517
              0.118   0.118   0.069   0.118   0.069
   4  4.000   0.645   0.569   0.248   0.250   0.248   0.517   0.515   0.517
              0.118   0.118   0.069   0.118   0.069
   5  4.000   0.643   0.571   0.248   0.248   0.248   0.517   0.517   0.517
              0.118   0.118   0.069   0.118   0.069
   6  4.000   0.645   0.569   0.250   0.248   0.248   0.515   0.517   0.517
              0.118   0.118   0.069   0.118   0.069
   7  4.000   0.643   0.571   0.248   0.248   0.248   0.517   0.517   0.517
              0.118   0.118   0.069   0.118   0.069
   8  4.000   0.645   0.569   0.248   0.248   0.250   0.517   0.517   0.515
              0.118   0.118   0.069   0.118   0.069

mulliken: Qtot =       32.000

cgvc: Finished line minimization    3.  Mean atomic displacement =    0.0482

* Maximum dynamic memory allocated =    89 MB

siesta:                 ==============================
                            Begin CG move =      9
                        ==============================

outcoor: Atomic coordinates (Ang):                          
    0.08103248    0.08103317    0.08103586   1       1  Si
    1.43440471    1.43440526    1.43440105   1       2  Si
    2.83485175    2.83485197    0.06494590   1       3  Si
    4.19179828    4.19179736    1.44930447   1       4  Si
    2.83485286    0.06494132    2.83485662   1       5  Si
    4.19179847    1.44930537    4.19179771   1       6  Si
    0.06494209    2.83485319    2.83485726   1       7  Si
    1.44930527    4.19179895    4.19179698   1       8  Si
 Kpoints in:          108 . Kpoints trimmed:          108

siesta: k-grid: Number of k-points =   108
siesta: k-grid: Cutoff (effective) =    16.506 Ang
siesta: k-grid: Supercell and displacements
siesta: k-grid:    6   0   0      0.500
siesta: k-grid:    0   6   0      0.500
siesta: k-grid:    0   0   6      0.500
Naive supercell factors:     5    5    5

superc: Internal auxiliary supercell:     5 x     5 x     5  =     125
superc: Number of atoms, orbitals, and projectors:   1000  13000  16000

outcell: Unit cell vectors (Ang):
        5.502098   -0.003284   -0.003282
       -0.003284    5.502098   -0.003282
       -0.003282   -0.003282    5.502098

outcell: Cell vector modules (Ang)   :    5.502100    5.502100    5.502100
outcell: Cell angles (23,13,12) (deg):     90.0683     90.0683     90.0684
outcell: Cell volume (Ang**3)        :    166.5653
New_DM. Step:    10
Re-using DM from previous geometry...
Re-using DM without extrapolation (not allowed)
Density Matrix sparsity pattern changed.

InitMesh: MESH =    36 x    36 x    36 =       46656
InitMesh: Mesh cutoff (required, used) =   100.000   118.318 Ry

siesta: iscf   Eharris(eV)      E_KS(eV)   FreeEng(eV)   dDmax  Ef(eV)
siesta:    1    -1030.6539    -1031.0196    -1031.0196  0.0300 -5.0076
siesta:    2    -1030.6661    -1030.6395    -1030.6395  0.0205 -5.0044
siesta:    3    -1030.6488    -1030.6842    -1030.6842  0.0034 -5.0050
siesta:    4    -1030.6487    -1030.6442    -1030.6442  0.0004 -5.0044

siesta: E_KS(eV) =            -1030.6448

siesta: Atomic forces (eV/Ang):
----------------------------------------
   Tot   -0.002937   -0.002935   -0.003604
----------------------------------------
   Max    0.319305
   Res    0.203554    sqrt( Sum f_i^2 / 3N )
----------------------------------------
   Max    0.319305    constrained

Stress-tensor-Voigt (kbar):       -8.56       -8.56       -8.55       -5.32       -5.31       -5.31
(Free)E + p*V (eV/cell)    -1029.7553
Target enthalpy (eV/cell)    -1030.6448

siesta: Stress tensor (static) (eV/Ang**3):
        -0.005341   -0.003322   -0.003314
        -0.003322   -0.005340   -0.003314
        -0.003314   -0.003314   -0.005339

siesta: Pressure (static):          8.55593917  kBar

siesta: Stress tensor (total) (eV/Ang**3):
        -0.005341   -0.003322   -0.003314
        -0.003322   -0.005340   -0.003314
        -0.003314   -0.003314   -0.005339

siesta: Pressure (total):          8.55593917  kBar

mulliken: Mulliken Atomic and Orbital Populations:

Species: Si                  
Atom  Qatom  Qorb
               3s      3s      3py     3pz     3px     3py     3pz     3px     
               3Pdxy   3Pdyz   3Pdz2   3Pdxz   3Pdx2-y2
   1  4.001   0.635   0.574   0.240   0.240   0.240   0.524   0.524   0.524
              0.120   0.120   0.071   0.120   0.071
   2  3.999   0.645   0.569   0.244   0.244   0.244   0.520   0.520   0.520
              0.118   0.118   0.070   0.118   0.070
   3  4.000   0.633   0.574   0.238   0.238   0.238   0.525   0.525   0.525
              0.120   0.120   0.071   0.120   0.071
   4  4.000   0.630   0.576   0.238   0.233   0.238   0.526   0.530   0.526
              0.120   0.121   0.072   0.121   0.071
   5  4.000   0.633   0.574   0.238   0.238   0.238   0.525   0.525   0.525
              0.120   0.120   0.071   0.120   0.071
   6  4.000   0.630   0.576   0.233   0.238   0.238   0.530   0.526   0.526
              0.121   0.121   0.071   0.120   0.072
   7  4.000   0.633   0.574   0.238   0.238   0.238   0.525   0.525   0.525
              0.120   0.120   0.071   0.120   0.071
   8  4.000   0.630   0.576   0.238   0.238   0.233   0.526   0.526   0.530
              0.121   0.120   0.071   0.121   0.072

mulliken: Qtot =       32.000

* Maximum dynamic memory allocated =    89 MB

siesta:                 ==============================
                            Begin CG move =     10
                        ==============================

outcoor: Atomic coordinates (Ang):                          
    0.07127065    0.07127106    0.07127155   1       1  Si
    1.44846131    1.44846141    1.44846093   1       2  Si
    2.83032717    2.83032724    0.06813821   1       3  Si
    4.20810675    4.20810656    1.44770273   1       4  Si
    2.83032725    0.06813731    2.83032825   1       5  Si
    4.20810641    1.44770270    4.20810632   1       6  Si
    0.06813732    2.83032763    2.83032840   1       7  Si
    1.44770245    4.20810665    4.20810635   1       8  Si
 Kpoints in:          108 . Kpoints trimmed:          108

siesta: k-grid: Number of k-points =   108
siesta: k-grid: Cutoff (effective) =    16.567 Ang
siesta: k-grid: Supercell and displacements
siesta: k-grid:    6   0   0      0.500
siesta: k-grid:    0   6   0      0.500
siesta: k-grid:    0   0   6      0.500
Naive supercell factors:     5    5    5

superc: Internal auxiliary supercell:     5 x     5 x     5  =     125
superc: Number of atoms, orbitals, and projectors:   1000  13000  16000

outcell: Unit cell vectors (Ang):
        5.522332   -0.008618   -0.008617
       -0.008618    5.522332   -0.008617
       -0.008617   -0.008617    5.522332

outcell: Cell vector modules (Ang)   :    5.522345    5.522345    5.522345
outcell: Cell angles (23,13,12) (deg):     90.1787     90.1787     90.1787
outcell: Cell volume (Ang**3)        :    168.4086
New_DM. Step:    11
Re-using DM from previous geometry...
Re-using DM without extrapolation (not allowed)
Density Matrix sparsity pattern changed.

InitMesh: MESH =    36 x    36 x    36 =       46656
InitMesh: Mesh cutoff (required, used) =   100.000   117.454 Ry

siesta: iscf   Eharris(eV)      E_KS(eV)   FreeEng(eV)   dDmax  Ef(eV)
siesta:    1    -1030.6768    -1030.3690    -1030.3690  0.0142 -4.9985
siesta:    2    -1030.6839    -1030.6682    -1030.6682  0.0162 -4.9947
siesta:    3    -1030.6737    -1030.6293    -1030.6293  0.0024 -5.0013
siesta:    4    -1030.6737    -1030.6729    -1030.6729  0.0003 -5.0017

siesta: E_KS(eV) =            -1030.6738

siesta: Atomic forces (eV/Ang):
----------------------------------------
   Tot   -0.001187   -0.001178   -0.001190
----------------------------------------
   Max    0.023098
   Res    0.017708    sqrt( Sum f_i^2 / 3N )
----------------------------------------
   Max    0.023098    constrained

Stress-tensor-Voigt (kbar):        0.38        0.38        0.38       -2.22       -2.22       -2.22
(Free)E + p*V (eV/cell)    -1030.7132
Target enthalpy (eV/cell)    -1030.6738

siesta: Stress tensor (static) (eV/Ang**3):
         0.000234   -0.001388   -0.001388
        -0.001388    0.000234   -0.001388
        -0.001388   -0.001388    0.000234

siesta: Pressure (static):         -0.37524554  kBar

siesta: Stress tensor (total) (eV/Ang**3):
         0.000234   -0.001388   -0.001388
        -0.001388    0.000234   -0.001388
        -0.001388   -0.001388    0.000234

siesta: Pressure (total):         -0.37524554  kBar

mulliken: Mulliken Atomic and Orbital Populations:

Species: Si                  
Atom  Qatom  Qorb
               3s      3s      3py     3pz     3px     3py     3pz     3px     
               3Pdxy   3Pdyz   3Pdz2   3Pdxz   3Pdx2-y2
   1  4.000   0.643   0.570   0.247   0.247   0.247   0.518   0.518   0.518
              0.118   0.118   0.069   0.118   0.069
   2  4.000   0.641   0.571   0.246   0.246   0.246   0.519   0.519   0.519
              0.118   0.118   0.070   0.118   0.070
   3  4.000   0.641   0.571   0.246   0.245   0.246   0.519   0.519   0.519
              0.118   0.118   0.070   0.118   0.070
   4  4.000   0.642   0.571   0.246   0.246   0.246   0.518   0.518   0.518
              0.118   0.118   0.070   0.118   0.070
   5  4.000   0.641   0.571   0.245   0.246   0.246   0.519   0.519   0.519
              0.118   0.118   0.070   0.118   0.070
   6  4.000   0.642   0.571   0.246   0.246   0.246   0.518   0.518   0.518
              0.118   0.118   0.070   0.118   0.070
   7  4.000   0.641   0.571   0.246   0.246   0.245   0.519   0.519   0.519
              0.118   0.118   0.070   0.118   0.070
   8  4.000   0.642   0.571   0.246   0.246   0.246   0.518   0.518   0.518
              0.118   0.118   0.070   0.118   0.070

mulliken: Qtot =       32.000

* Maximum dynamic memory allocated =    89 MB

outcoor: Relaxed atomic coordinates (Ang):                  
    0.07127065    0.07127106    0.07127155   1       1  Si
    1.44846131    1.44846141    1.44846093   1       2  Si
    2.83032717    2.83032724    0.06813821   1       3  Si
    4.20810675    4.20810656    1.44770273   1       4  Si
    2.83032725    0.06813731    2.83032825   1       5  Si
    4.20810641    1.44770270    4.20810632   1       6  Si
    0.06813732    2.83032763    2.83032840   1       7  Si
    1.44770245    4.20810665    4.20810635   1       8  Si

outcell: Unit cell vectors (Ang):
        5.522332   -0.008618   -0.008617
       -0.008618    5.522332   -0.008617
       -0.008617   -0.008617    5.522332

outcell: Cell vector modules (Ang)   :    5.522345    5.522345    5.522345
outcell: Cell angles (23,13,12) (deg):     90.1787     90.1787     90.1787
outcell: Cell volume (Ang**3)        :    168.4086

coxmol: Writing XMOL coordinates into file si.xyz                                                          
Writing WFSX for selected k-points in si.selected.WFSX

writewave: Wave Functions Coefficients

     Number of k-points =        1
        Number of Spins =        1
   Number of basis orbs =      104


                                                                  ******
            k-point =        1    0.000000  0.000000  0.000000
     Spin component =        1
 Num. wavefunctions =       50
Use readwfsx utility to print wavefunction coefficients from WFSX file
Computing bands...

siesta: Band k vectors (Bohr**-1):
  ik           k
   1    0.316659    0.316659    0.316659
   2    0.303992    0.303992    0.303992
   3    0.291326    0.291326    0.291326
   4    0.278660    0.278660    0.278660
   5    0.265993    0.265993    0.265993
   6    0.253327    0.253327    0.253327
   7    0.240661    0.240661    0.240661
   8    0.227994    0.227994    0.227994
   9    0.215328    0.215328    0.215328
  10    0.202662    0.202662    0.202662
  11    0.189995    0.189995    0.189995
  12    0.177329    0.177329    0.177329
  13    0.164663    0.164663    0.164663
  14    0.151996    0.151996    0.151996
  15    0.139330    0.139330    0.139330
  16    0.126664    0.126664    0.126664
  17    0.113997    0.113997    0.113997
  18    0.101331    0.101331    0.101331
  19    0.088664    0.088664    0.088664
  20    0.075998    0.075998    0.075998
  21    0.063332    0.063332    0.063332
  22    0.050665    0.050665    0.050665
  23    0.037999    0.037999    0.037999
  24    0.025333    0.025333    0.025333
  25    0.012666    0.012666    0.012666
  26    0.000000    0.000000    0.000000
  27    0.021111    0.000000    0.000000
  28    0.042221    0.000000    0.000000
  29    0.063332    0.000000    0.000000
  30    0.084442    0.000000    0.000000
  31    0.105553    0.000000    0.000000
  32    0.126664    0.000000    0.000000
  33    0.147774    0.000000    0.000000
  34    0.168885    0.000000    0.000000
  35    0.189995    0.000000    0.000000
  36    0.211106    0.000000    0.000000
  37    0.232216    0.000000    0.000000
  38    0.253327    0.000000    0.000000
  39    0.274438    0.000000    0.000000
  40    0.295548    0.000000    0.000000
  41    0.316659    0.000000    0.000000
  42    0.337769    0.000000    0.000000
  43    0.358880    0.000000    0.000000
  44    0.379991    0.000000    0.000000
  45    0.401101    0.000000    0.000000
  46    0.422212    0.000000    0.000000
  47    0.443322    0.000000    0.000000
  48    0.464433    0.000000    0.000000
  49    0.485543    0.000000    0.000000
  50    0.506654    0.000000    0.000000
  51    0.527765    0.000000    0.000000
  52    0.548875    0.000000    0.000000
  53    0.569986    0.000000    0.000000
  54    0.591096    0.000000    0.000000
  55    0.612207    0.000000    0.000000
  56    0.633318    0.000000    0.000000
  57    0.633318    0.015833    0.015833
  58    0.633318    0.031666    0.031666
  59    0.633318    0.047499    0.047499
  60    0.633318    0.063332    0.063332
  61    0.633318    0.079165    0.079165
  62    0.633318    0.094998    0.094998
  63    0.633318    0.110831    0.110831
  64    0.633318    0.126664    0.126664
  65    0.633318    0.142496    0.142496
  66    0.633318    0.158329    0.158329
  67    0.615223    0.153806    0.153806
  68    0.597128    0.149282    0.149282
  69    0.579033    0.144758    0.144758
  70    0.560938    0.140235    0.140235
  71    0.542844    0.135711    0.135711
  72    0.524749    0.131187    0.131187
  73    0.506654    0.126664    0.126664
  74    0.488559    0.122140    0.122140
  75    0.470464    0.117616    0.117616
  76    0.452370    0.113092    0.113092
  77    0.434275    0.108569    0.108569
  78    0.416180    0.104045    0.104045
  79    0.398085    0.099521    0.099521
  80    0.379991    0.094998    0.094998
  81    0.361896    0.090474    0.090474
  82    0.343801    0.085950    0.085950
  83    0.325706    0.081427    0.081427
  84    0.307611    0.076903    0.076903
  85    0.289517    0.072379    0.072379
  86    0.271422    0.067855    0.067855
  87    0.253327    0.063332    0.063332
  88    0.235232    0.058808    0.058808
  89    0.217137    0.054284    0.054284
  90    0.199043    0.049761    0.049761
  91    0.180948    0.045237    0.045237
  92    0.162853    0.040713    0.040713
  93    0.144758    0.036190    0.036190
  94    0.126664    0.031666    0.031666
  95    0.108569    0.027142    0.027142
  96    0.090474    0.022618    0.022618
  97    0.072379    0.018095    0.018095
  98    0.054284    0.013571    0.013571
  99    0.036190    0.009047    0.009047
 100    0.018095    0.004524    0.004524
 101    0.000000    0.000000    0.000000

siesta: Band energies (eV):
  ik is    eps
   1  1 -14.86 -14.86 -14.86 -14.85 -12.19 -12.18 -12.18 -12.14  -6.64  -6.63
         -6.63  -6.61  -6.61  -6.61  -6.60  -6.60  -4.04  -3.92  -3.92  -3.92
         -1.95  -1.95  -1.93  -1.93  -1.92  -1.91  -1.91  -1.91   3.46   3.50
          3.50   3.50   5.19   5.19   5.19   5.28   5.28   5.53   5.53   5.53
          5.86   5.94   5.94   5.94   6.02   6.02   6.03   6.43   6.43   6.55
          6.56   6.56   8.36   8.36   8.36   8.46  16.38  16.38  16.38  16.41
         17.28  17.28  17.30  17.30  17.31  17.36  17.36  17.36  19.33  19.33
         19.33  19.35  19.35  19.35  19.42  19.42  19.61  19.61  19.62  20.25
         28.73  28.73  28.73  28.86  28.86  29.05  29.05  29.06  64.49  64.80
         64.80  64.83  74.35  74.36  74.36  76.14  76.35  76.35  77.16  77.16
        111.44 116.82 116.82 116.83
   2  1 -14.86 -14.86 -14.86 -14.83 -12.19 -12.19 -12.19 -12.18  -6.61  -6.61
         -6.59  -6.59  -6.59  -6.58  -6.57  -6.57  -4.05  -3.98  -3.98  -3.98
         -1.95  -1.95  -1.94  -1.94  -1.94  -1.91  -1.91  -1.91   3.47   3.52
          3.52   3.52   5.55   5.55   5.55   5.60   5.60   5.60   5.61   5.61
          5.90   5.90   5.90   5.94   5.99   5.99   6.00   6.09   6.09   6.13
          6.13   6.13   8.33   8.33   8.33   8.39  16.40  16.40  16.40  16.49
         17.33  17.33  17.33  17.39  17.39  17.43  17.43  17.44  19.35  19.35
         19.36  19.36  19.37  19.38  19.38  19.39  19.89  19.89  19.89  20.13
         28.81  28.81  28.82  28.83  28.83  29.02  29.02  29.03  65.21  65.21
         65.23  65.66  77.25  77.25  78.56  78.80  78.80  80.71  80.78  80.78
        113.76 117.05 117.05 117.10
   3  1 -14.86 -14.86 -14.86 -14.84 -12.19 -12.19 -12.19 -12.16  -6.61  -6.61
         -6.61  -6.61  -6.61  -6.60  -6.59  -6.59  -4.04  -3.95  -3.95  -3.95
         -1.95  -1.95  -1.93  -1.93  -1.92  -1.92  -1.92  -1.92   3.47   3.51
          3.51   3.51   5.34   5.34   5.34   5.40   5.40   5.54   5.54   5.54
          5.90   5.93   5.93   5.93   6.01   6.01   6.01   6.30   6.30   6.39
          6.39   6.39   8.34   8.34   8.35   8.43  16.39  16.39  16.39  16.45
         17.31  17.31  17.32  17.33  17.33  17.39  17.39  17.40  19.35  19.35
         19.35  19.36  19.36  19.37  19.39  19.39  19.74  19.74  19.74  20.19
         28.77  28.77  28.77  28.85  28.85  29.04  29.04  29.05  65.01  65.04
         65.04  65.12  76.95  76.95  76.97  77.23  77.23  77.27  77.52  77.52
        112.52 117.31 117.31 117.33
   4  1 -14.90 -14.85 -14.85 -14.85 -12.17 -12.17 -12.17 -12.07  -6.72  -6.72
         -6.72  -6.63  -6.63  -6.63  -6.60  -6.60  -4.03  -3.84  -3.84  -3.84
         -1.95  -1.95  -1.94  -1.94  -1.94  -1.87  -1.87  -1.87   3.44   3.46
          3.46   3.46   4.88   4.88   4.89   5.00   5.00   5.50   5.51   5.51
          5.75   5.98   5.98   5.98   6.07   6.07   6.07   6.74   6.74   6.93
          6.94   6.94   8.39   8.39   8.40   8.55  16.31  16.35  16.35  16.35
         17.13  17.13  17.25  17.25  17.26  17.27  17.27  17.27  19.10  19.11
         19.11  19.29  19.29  19.30  19.42  19.42  19.44  19.52  19.52  20.42
         28.60  28.60  28.61  28.91  28.91  29.11  29.11  29.12  62.73  63.05
         63.05  63.08  69.49  69.49  69.52  72.97  73.14  73.14  76.98  76.98
        108.37 113.18 113.19 113.19
   5  1 -15.00 -14.84 -14.84 -14.84 -12.15 -12.14 -12.14 -11.93  -6.90  -6.90
         -6.90  -6.68  -6.68  -6.68  -6.59  -6.59  -4.02  -3.67  -3.66  -3.66
         -1.97  -1.97  -1.97  -1.93  -1.93  -1.77  -1.77  -1.77   3.31   3.32
          3.32   3.42   4.51   4.51   4.51   4.60   4.60   5.46   5.46   5.46
          5.54   6.06   6.06   6.06   6.15   6.15   6.16   7.21   7.21   7.49
          7.50   7.50   8.50   8.50   8.50   8.71  16.13  16.23  16.23  16.23
         16.84  16.84  17.01  17.01  17.02  17.22  17.22  17.22  18.49  18.49
         18.49  19.16  19.16  19.17  19.38  19.38  19.39  19.69  19.69  20.76
         28.31  28.31  28.31  29.01  29.01  29.30  29.30  29.30  56.36  56.36
         56.36  59.05  67.57  67.57  67.60  67.64  67.76  67.76  76.56  76.56
        103.09 103.28 103.29 103.29
   6  1 -15.12 -14.83 -14.83 -14.82 -12.11 -12.10 -12.10 -11.73  -7.12  -7.12
         -7.12  -6.75  -6.75  -6.75  -6.56  -6.56  -3.99  -3.48  -3.48  -3.48
         -1.99  -1.99  -1.98  -1.92  -1.92  -1.63  -1.63  -1.63   3.03   3.04
          3.04   3.36   4.21   4.21   4.29   4.29   4.30   5.31   5.41   5.41
          5.41   6.17   6.17   6.17   6.25   6.25   6.26   7.71   7.71   7.97
          7.99   7.99   8.72   8.72   8.72   8.87  15.94  15.96  15.96  15.97
         16.48  16.48  16.69  16.69  16.70  17.18  17.18  17.18  17.99  17.99
         17.99  18.99  18.99  19.00  19.38  19.38  19.39  19.87  19.87  21.17
         27.89  27.89  27.89  29.14  29.14  29.60  29.60  29.60  49.69  49.69
         49.70  54.52  62.75  62.84  62.84  67.42  67.42  67.46  75.96  75.96
         93.29  93.33  93.33  98.16
   7  1 -15.26 -14.80 -14.80 -14.80 -12.06 -12.06 -12.06 -11.50  -7.36  -7.36
         -7.36  -6.83  -6.83  -6.83  -6.54  -6.54  -3.96  -3.32  -3.32  -3.32
         -1.95  -1.95  -1.94  -1.90  -1.90  -1.46  -1.46  -1.45   2.63   2.63
          2.63   3.27   3.84   3.84   4.22   4.22   4.22   5.09   5.37   5.37
          5.37   6.29   6.30   6.30   6.37   6.37   6.37   8.20   8.20   8.29
          8.30   8.30   8.97   9.15   9.15   9.15  15.58  15.58  15.58  15.81
         16.08  16.08  16.32  16.32  16.33  17.09  17.09  17.09  17.75  17.75
         17.75  18.77  18.77  18.78  19.40  19.40  19.41  20.05  20.05  21.64
         27.37  27.37  27.37  29.29  29.29  30.03  30.03  30.03  44.23  44.23
         44.24  49.92  59.08  59.14  59.14  67.15  67.15  67.18  75.18  75.18
         86.44  86.47  86.47  93.87
   8  1 -15.41 -14.78 -14.78 -14.77 -12.00 -12.00 -12.00 -11.24  -7.60  -7.60
         -7.60  -6.93  -6.92  -6.92  -6.50  -6.50  -3.92  -3.24  -3.23  -3.23
         -1.88  -1.88  -1.82  -1.82  -1.82  -1.25  -1.25  -1.25   2.16   2.17
          2.17   3.13   3.49   3.49   4.23   4.23   4.23   4.92   5.33   5.33
          5.33   6.43   6.43   6.43   6.49   6.49   6.49   8.49   8.49   8.49
          8.70   8.70   9.01   9.73   9.73   9.73  15.16  15.16  15.16  15.67
         15.67  15.74  15.91  15.91  15.92  16.92  16.92  16.92  17.76  17.76
         17.76  18.51  18.51  18.51  19.46  19.46  19.47  20.21  20.21  22.15
         26.76  26.76  26.76  29.47  29.47  30.55  30.55  30.55  39.87  39.87
         39.89  45.77  56.64  56.69  56.69  66.40  66.40  66.44  74.28  74.28
         82.79  82.81  82.81  90.08
   9  1 -15.56 -14.74 -14.74 -14.74 -11.94 -11.94 -11.94 -10.95  -7.85  -7.85
         -7.85  -7.03  -7.02  -7.02  -6.46  -6.46  -3.87  -3.24  -3.23  -3.23
         -1.86  -1.86  -1.60  -1.60  -1.59  -1.01  -1.01  -1.01   1.67   1.68
          1.68   2.94   3.17   3.17   4.28   4.28   4.28   4.82   5.31   5.31
          5.31   6.56   6.56   6.56   6.61   6.61   6.61   8.65   8.66   8.66
          8.95   9.18   9.18  10.35  10.35  10.35  14.74  14.74  14.74  15.26
         15.26  15.49  15.49  15.49  15.75  16.73  16.73  16.73  17.87  17.87
         17.87  18.20  18.20  18.20  19.57  19.57  19.57  20.35  20.35  22.72
         26.10  26.10  26.10  29.66  29.66  31.12  31.12  31.12  36.45  36.45
         36.47  42.30  55.25  55.29  55.29  65.22  65.22  65.24  73.36  73.36
         81.31  81.32  81.32  86.53
  10  1 -15.71 -14.71 -14.71 -14.70 -11.87 -11.87 -11.87 -10.65  -8.08  -8.08
         -8.08  -7.13  -7.13  -7.13  -6.41  -6.41  -3.82  -3.30  -3.29  -3.29
         -1.84  -1.84  -1.30  -1.30  -1.29  -0.75  -0.75  -0.74   1.18   1.18
          1.18   2.70   2.87   2.87   4.35   4.35   4.35   4.78   5.29   5.29
          5.29   6.68   6.68   6.69   6.73   6.73   6.73   8.79   8.82   8.82
          8.83   9.62   9.62  10.98  10.98  10.98  14.33  14.33  14.33  14.89
         14.89  15.06  15.06  15.07  15.81  16.57  16.57  16.57  17.86  17.86
         17.86  18.01  18.01  18.02  19.71  19.71  19.72  20.47  20.47  23.34
         25.41  25.41  25.42  29.85  29.85  31.58  31.59  31.59  33.88  33.88
         33.90  39.55  54.67  54.70  54.70  63.74  63.74  63.77  72.53  72.53
         80.88  80.88  80.88  83.03
  11  1 -15.85 -14.66 -14.66 -14.66 -11.81 -11.81 -11.81 -10.32  -8.31  -8.30
         -8.30  -7.24  -7.24  -7.24  -6.36  -6.36  -3.76  -3.40  -3.39  -3.39
         -1.83  -1.83  -0.94  -0.94  -0.94  -0.46  -0.46  -0.46   0.68   0.68
          0.68   2.41   2.61   2.61   4.44   4.44   4.44   4.80   5.28   5.28
          5.28   6.80   6.80   6.80   6.84   6.84   6.84   8.55   9.02   9.02
          9.02   9.99   9.99  11.59  11.59  11.59  13.92  13.92  13.92  14.60
         14.60  14.63  14.63  14.64  15.93  16.45  16.45  16.45  17.49  17.49
         17.50  18.16  18.16  18.17  19.90  19.90  19.90  20.56  20.56  24.00
         24.72  24.72  24.73  30.06  30.06  31.04  31.04  31.04  32.84  32.84
         32.85  37.45  54.68  54.71  54.71  61.99  61.99  62.00  71.95  71.95
         79.47  80.75  80.75  80.77
  12  1 -16.00 -14.61 -14.61 -14.60 -11.75 -11.75 -11.75  -9.99  -8.50  -8.50
         -8.50  -7.35  -7.34  -7.34  -6.30  -6.30  -3.69  -3.51  -3.51  -3.51
         -1.83  -1.83  -0.56  -0.56  -0.56  -0.15  -0.15  -0.15   0.18   0.19
[...]
         76.08  86.81  93.94  95.46
  93  1 -16.05 -15.40 -14.29 -13.95 -12.12 -11.73 -10.34  -9.47  -9.33  -9.17
         -8.18  -7.93  -7.75  -7.51  -7.26  -6.38  -3.21  -3.19  -2.78  -2.12
         -2.03  -1.57  -1.56  -0.85  -0.82  -0.58  -0.37  -0.27   0.63   0.72
          1.23   2.04   2.09   2.10   2.68   3.54   3.99   4.04   4.65   5.64
          5.80   5.81   7.71   7.79   8.33   8.43   9.06   9.37   9.47  10.27
         10.58  11.03  11.10  11.34  11.49  11.76  12.06  12.46  13.07  13.36
         14.03  14.25  14.47  14.50  14.70  15.45  15.80  16.14  16.45  16.99
         17.61  17.76  18.54  18.75  19.38  20.60  21.66  22.25  22.62  23.07
         23.28  23.59  24.60  24.91  26.06  26.27  31.39  35.90  37.24  39.73
         41.11  50.38  51.84  53.73  55.16  63.83  64.15  64.41  66.59  70.93
         75.73  86.66  93.59  95.57
  94  1 -15.84 -15.24 -14.36 -14.36 -12.00 -12.00 -10.98 -10.17  -8.77  -8.77
         -7.78  -7.48  -7.48  -7.19  -6.71  -6.69  -3.32  -3.23  -2.97  -2.97
         -2.09  -1.41  -1.41  -1.29  -1.17  -0.47  -0.19   0.50   0.51   0.69
          0.98   0.98   2.86   2.86   3.29   3.40   4.97   5.08   5.13   5.44
          5.45   5.46   6.46   6.46   7.24   8.37   8.91   9.11   9.11   9.25
          9.49   9.49  11.15  11.50  11.50  11.82  13.17  13.32  13.53  13.53
         13.63  14.59  15.00  15.00  16.04  16.04  16.34  16.35  17.25  17.31
         17.31  17.89  17.89  19.03  19.20  19.21  20.68  21.83  21.92  23.75
         24.43  24.43  25.05  26.81  27.51  27.51  31.63  32.71  35.02  35.02
         40.80  48.87  54.45  54.46  57.38  60.12  63.24  65.12  65.12  68.07
         83.43  87.55  87.57  94.06
  95  1 -15.45 -14.94 -14.94 -14.59 -12.02 -11.63 -11.63 -10.99  -8.31  -7.91
         -7.91  -7.24  -6.97  -6.92  -6.91  -6.40  -3.36  -3.19  -2.86  -2.86
         -2.07  -2.07  -1.79  -1.73  -1.28  -0.94  -0.81  -0.80   1.50   1.50
          2.19   2.41   2.65   3.18   3.55   4.02   4.02   4.38   4.38   4.75
          5.23   7.00   7.00   7.12   7.13   7.80   8.15   8.59   8.89   8.90
          8.97   9.38   9.43  10.13  10.61  10.61  13.88  14.08  14.08  15.05
         15.06  15.10  15.51  15.67  15.76  15.96  16.33  16.34  17.54  18.36
         18.36  18.38  18.88  18.88  19.32  19.59  20.42  20.42  21.04  21.61
         26.75  26.89  26.90  28.23  28.60  32.06  32.06  34.09  38.62  39.51
         39.53  45.77  54.77  54.79  58.00  58.80  60.25  72.87  72.88  78.44
         84.00  84.03  84.95 102.35
  96  1 -15.47 -14.93 -14.91 -14.60 -12.02 -11.64 -11.63 -11.01  -8.32  -7.93
         -7.90  -7.21  -6.95  -6.94  -6.92  -6.37  -3.30  -3.17  -2.91  -2.86
         -2.10  -2.08  -1.76  -1.71  -1.30  -0.93  -0.85  -0.81   1.40   1.45
          2.20   2.44   2.55   3.24   3.61   4.05   4.05   4.43   4.44   4.76
          5.17   7.05   7.05   7.19   7.24   7.82   8.08   8.64   8.90   8.95
          8.95   9.31   9.32  10.09  10.48  10.57  13.83  14.08  14.12  15.05
         15.07  15.10  15.45  15.55  15.78  15.96  16.42  16.45  17.57  18.29
         18.34  18.39  18.90  19.00  19.35  19.66  20.43  20.44  21.10  21.46
         26.83  26.87  26.99  28.31  28.59  32.05  32.11  34.23  38.71  39.51
         39.59  45.96  54.34  54.52  58.42  59.09  61.09  73.21  73.28  78.22
         84.01  84.20  84.79 105.08
  97  1 -15.46 -14.94 -14.94 -14.57 -12.02 -11.64 -11.64 -11.02  -8.34  -7.91
         -7.90  -7.19  -6.98  -6.91  -6.91  -6.39  -3.31  -3.22  -2.83  -2.83
         -2.08  -2.07  -1.78  -1.70  -1.35  -0.96  -0.83  -0.83   1.40   1.41
          2.15   2.38   2.61   3.25   3.61   4.06   4.06   4.45   4.45   4.81
          5.29   7.03   7.03   7.16   7.16   7.80   8.14   8.66   8.95   8.95
          9.00   9.27   9.36  10.03  10.46  10.46  13.79  14.03  14.03  15.02
         15.02  15.17  15.44  15.65  15.81  16.04  16.46  16.47  17.63  18.34
         18.34  18.38  18.87  18.88  19.35  19.65  20.47  20.47  21.08  21.52
         26.72  26.95  26.95  28.39  28.53  32.28  32.29  34.16  38.59  39.65
         39.65  45.59  55.19  55.20  57.99  58.94  60.75  73.21  73.22  78.65
         84.47  84.57  84.69 103.79
  98  1 -15.63 -15.04 -15.04 -14.51 -11.62 -11.01 -11.01 -10.22  -9.28  -8.79
         -8.79  -8.19  -7.10  -7.00  -7.00  -6.32  -3.32  -2.70  -2.41  -2.40
         -1.71  -1.71  -1.41  -1.16  -0.13  -0.13  -0.11   0.03   0.44   0.44
          0.67   1.21   1.74   2.16   2.51   2.78   2.78   4.20   4.20   5.41
          5.81   7.58   7.58   8.17   8.73   8.74   9.39   9.64   9.88  10.04
         10.04  10.70  11.12  11.66  11.66  12.00  12.74  12.79  12.79  12.85
         13.42  13.73  13.73  14.43  14.90  15.15  15.16  15.56  17.42  18.14
         18.15  19.17  19.79  19.90  19.90  20.38  21.51  21.51  21.70  22.27
         25.50  25.53  25.97  25.98  27.59  35.94  35.94  40.21  42.89  42.90
         48.37  52.04  52.05  53.29  57.63  59.42  60.46  68.91  68.94  78.39
         79.18  81.15  81.16  97.21
  99  1 -15.62 -15.04 -15.04 -14.51 -11.63 -11.00 -11.00 -10.20  -9.26  -8.80
         -8.80  -8.22  -7.09  -7.00  -7.00  -6.33  -3.31  -2.71  -2.41  -2.41
         -1.75  -1.75  -1.41  -1.19  -0.09  -0.05  -0.05   0.10   0.47   0.47
          0.71   1.23   1.67   2.12   2.52   2.72   2.72   4.20   4.20   5.38
          5.78   7.58   7.58   8.17   8.72   8.72   9.39   9.69   9.94   9.95
          9.95  10.69  11.04  11.72  11.72  12.06  12.71  12.89  12.94  12.94
         13.51  13.73  13.73  14.43  14.86  15.03  15.04  15.52  17.42  18.14
         18.15  19.12  19.76  19.91  19.91  20.35  21.48  21.48  21.69  22.33
         25.53  25.56  25.95  25.95  27.53  35.88  35.89  40.19  42.41  42.42
         48.25  52.36  52.38  53.15  57.40  59.26  60.82  68.29  68.30  78.56
         79.08  80.90  80.91  97.22
 100  1 -15.45 -14.94 -14.94 -14.59 -12.02 -11.63 -11.63 -10.99  -8.31  -7.91
         -7.91  -7.24  -6.97  -6.92  -6.91  -6.40  -3.36  -3.19  -2.86  -2.86
         -2.07  -2.07  -1.79  -1.73  -1.28  -0.94  -0.81  -0.80   1.50   1.50
          2.19   2.41   2.65   3.18   3.55   4.02   4.02   4.38   4.38   4.75
          5.23   7.00   7.00   7.12   7.13   7.80   8.15   8.59   8.89   8.90
          8.97   9.38   9.43  10.13  10.61  10.61  13.88  14.08  14.08  15.05
         15.06  15.10  15.51  15.67  15.76  15.96  16.33  16.34  17.54  18.36
         18.36  18.38  18.88  18.88  19.32  19.59  20.42  20.42  21.04  21.61
         26.75  26.89  26.90  28.23  28.60  32.06  32.06  34.09  38.62  39.51
         39.53  45.77  54.77  54.79  58.00  58.80  60.25  72.87  72.88  78.44
         84.00  84.03  84.95 102.35
 101  1 -15.14 -14.82 -14.82 -14.82 -12.10 -12.10 -12.10 -11.70  -7.15  -7.15
         -7.15  -6.76  -6.76  -6.76  -6.56  -6.56  -3.99  -3.46  -3.45  -3.45
         -1.99  -1.99  -1.98  -1.91  -1.91  -1.61  -1.61  -1.61   2.99   2.99
          2.99   3.35   4.16   4.16   4.27   4.27   4.28   5.27   5.41   5.41
          5.41   6.18   6.19   6.19   6.27   6.27   6.27   7.77   7.77   8.03
          8.04   8.04   8.76   8.76   8.77   8.88  15.91  15.91  15.91  15.93
         16.43  16.43  16.64  16.64  16.65  17.17  17.17  17.17  17.94  17.94
         17.94  18.96  18.96  18.97  19.38  19.38  19.39  19.90  19.90  21.23
         27.83  27.83  27.83  29.16  29.16  29.65  29.65  29.65  48.90  48.90
         48.91  53.91  62.19  62.27  62.27  67.40  67.40  67.44  75.86  75.86
         92.19  92.22  92.22  97.55
 102  1 -15.16 -14.82 -14.82 -14.79 -12.10 -12.10 -12.09 -11.72  -7.18  -7.16
         -7.15  -6.78  -6.74  -6.74  -6.54  -6.52  -3.93  -3.51  -3.45  -3.45
         -2.03  -2.01  -2.01  -1.90  -1.87  -1.63  -1.59  -1.59   2.90   2.90
          2.93   3.39   4.11   4.18   4.29   4.29   4.30   5.27   5.46   5.46
          5.48   6.21   6.21   6.25   6.34   6.37   6.38   7.68   7.76   7.99
          8.00   8.03   8.67   8.68   8.76   8.81  15.83  15.90  15.90  15.99
         16.37  16.43  16.59  16.59  16.63  17.24  17.26  17.27  17.95  17.96
         18.11  18.93  18.95  18.96  19.38  19.39  19.39  19.93  19.96  21.02
         27.83  27.98  27.98  29.18  29.36  29.53  29.59  29.60  48.52  49.01
         49.01  53.85  61.64  62.88  62.91  66.99  67.00  67.37  77.15  78.65
         92.60  92.64  92.80  98.40
 103  1 -15.47 -14.93 -14.91 -14.60 -12.02 -11.64 -11.63 -11.01  -8.32  -7.93
         -7.90  -7.21  -6.95  -6.94  -6.92  -6.37  -3.30  -3.17  -2.91  -2.86
         -2.10  -2.08  -1.76  -1.71  -1.30  -0.93  -0.85  -0.81   1.40   1.45
          2.20   2.44   2.55   3.24   3.61   4.05   4.05   4.43   4.44   4.76
          5.17   7.05   7.05   7.19   7.24   7.82   8.08   8.64   8.90   8.95
          8.95   9.31   9.32  10.09  10.48  10.57  13.83  14.08  14.12  15.05
         15.07  15.10  15.45  15.55  15.78  15.96  16.42  16.45  17.57  18.29
         18.34  18.39  18.90  19.00  19.35  19.66  20.43  20.44  21.10  21.46
         26.83  26.87  26.99  28.31  28.59  32.05  32.11  34.23  38.71  39.51
         39.59  45.96  54.34  54.52  58.42  59.09  61.09  73.21  73.28  78.22
         84.01  84.20  84.79 105.08
 104  1 -15.64 -15.03 -15.02 -14.53 -11.62 -11.01 -11.00 -10.22  -9.27  -8.80
         -8.78  -8.21  -7.07  -7.03  -7.02  -6.31  -3.28  -2.67  -2.46  -2.44
         -1.76  -1.73  -1.38  -1.16  -0.13  -0.11  -0.09   0.10   0.42   0.44
          0.72   1.26   1.74   2.17   2.42   2.69   2.73   4.28   4.30   5.32
          5.71   7.67   7.70   8.17   8.70   8.73   9.31   9.67   9.87   9.97
         10.04  10.66  11.09  11.72  11.74  12.00  12.68  12.83  12.87  12.88
         13.46  13.77  13.78  14.33  14.89  15.11  15.14  15.50  17.32  18.12
         18.15  19.23  19.77  19.90  19.95  20.41  21.46  21.47  21.76  22.27
         25.55  25.61  25.90  25.96  27.58  35.87  35.93  40.30  42.43  42.50
         48.92  51.54  51.78  53.18  58.11  59.67  60.43  68.77  68.83  78.44
         78.86  81.02  81.24  97.05
 105  1 -15.64 -15.03 -15.02 -14.53 -11.62 -11.01 -11.00 -10.22  -9.27  -8.80
         -8.78  -8.21  -7.07  -7.03  -7.02  -6.31  -3.28  -2.67  -2.46  -2.44
         -1.76  -1.73  -1.38  -1.16  -0.13  -0.11  -0.09   0.10   0.42   0.44
          0.72   1.26   1.74   2.17   2.42   2.69   2.73   4.28   4.30   5.32
          5.71   7.67   7.70   8.17   8.70   8.73   9.31   9.67   9.87   9.97
         10.04  10.66  11.09  11.72  11.74  12.00  12.68  12.83  12.87  12.88
         13.46  13.77  13.78  14.33  14.89  15.11  15.14  15.50  17.32  18.12
         18.15  19.23  19.77  19.90  19.95  20.41  21.46  21.47  21.76  22.27
         25.55  25.61  25.90  25.96  27.58  35.87  35.93  40.30  42.43  42.50
         48.92  51.54  51.78  53.18  58.11  59.67  60.43  68.77  68.83  78.44
         78.86  81.02  81.24  97.05
 106  1 -15.47 -14.93 -14.91 -14.60 -12.02 -11.64 -11.63 -11.01  -8.32  -7.93
         -7.90  -7.21  -6.95  -6.94  -6.92  -6.37  -3.30  -3.17  -2.91  -2.86
         -2.10  -2.08  -1.76  -1.71  -1.30  -0.93  -0.85  -0.81   1.40   1.45
          2.20   2.44   2.55   3.24   3.61   4.05   4.05   4.43   4.44   4.76
          5.17   7.05   7.05   7.19   7.24   7.82   8.08   8.64   8.90   8.95
          8.95   9.31   9.32  10.09  10.48  10.57  13.83  14.08  14.12  15.05
         15.07  15.10  15.45  15.55  15.78  15.96  16.42  16.45  17.57  18.29
         18.34  18.39  18.90  19.00  19.35  19.66  20.43  20.44  21.10  21.46
         26.83  26.87  26.99  28.31  28.59  32.05  32.11  34.23  38.71  39.51
         39.59  45.96  54.34  54.52  58.42  59.09  61.09  73.21  73.28  78.22
         84.01  84.20  84.79 105.08
 107  1 -15.16 -14.82 -14.82 -14.79 -12.10 -12.10 -12.09 -11.72  -7.18  -7.16
         -7.15  -6.78  -6.74  -6.74  -6.54  -6.52  -3.93  -3.51  -3.45  -3.45
         -2.03  -2.01  -2.01  -1.90  -1.87  -1.63  -1.59  -1.59   2.90   2.90
          2.93   3.39   4.11   4.18   4.29   4.29   4.30   5.27   5.46   5.46
          5.48   6.21   6.21   6.25   6.34   6.37   6.38   7.68   7.76   7.99
          8.00   8.03   8.67   8.68   8.76   8.81  15.83  15.90  15.90  15.99
         16.37  16.43  16.59  16.59  16.63  17.24  17.26  17.27  17.95  17.96
         18.11  18.93  18.95  18.96  19.38  19.39  19.39  19.93  19.96  21.02
         27.83  27.98  27.98  29.18  29.36  29.53  29.59  29.60  48.52  49.01
         49.01  53.85  61.64  62.88  62.91  66.99  67.00  67.37  77.15  78.65
         92.60  92.64  92.80  98.40
 108  1 -15.16 -14.82 -14.82 -14.79 -12.10 -12.10 -12.09 -11.72  -7.18  -7.16
         -7.15  -6.78  -6.74  -6.74  -6.54  -6.52  -3.93  -3.51  -3.45  -3.45
         -2.03  -2.01  -2.01  -1.90  -1.87  -1.63  -1.59  -1.59   2.90   2.90
          2.93   3.39   4.11   4.18   4.29   4.29   4.30   5.27   5.46   5.46
          5.48   6.21   6.21   6.25   6.34   6.37   6.38   7.68   7.76   7.99
          8.00   8.03   8.67   8.68   8.76   8.81  15.83  15.90  15.90  15.99
         16.37  16.43  16.59  16.59  16.63  17.24  17.26  17.27  17.95  17.96
         18.11  18.93  18.95  18.96  19.38  19.39  19.39  19.93  19.96  21.02
         27.83  27.98  27.98  29.18  29.36  29.53  29.59  29.60  48.52  49.01
         49.01  53.85  61.64  62.88  62.91  66.99  67.00  67.37  77.15  78.65
         92.60  92.64  92.80  98.40
siesta: Fermi energy =      -5.001718 eV

siesta: Program's energy decomposition (eV):
siesta: Ebs     =      -331.434844
siesta: Eions   =      1510.441798
siesta: Ena     =       471.421455
siesta: Ekin    =       319.059883
siesta: Enl     =       127.074052
siesta: DEna    =         6.651973
siesta: DUscf   =         1.516749
siesta: DUext   =         0.000000
siesta: Exc     =      -445.956115
siesta: eta*DQ  =         0.000000
siesta: Emadel  =         0.000000
siesta: Emeta   =         0.000000
siesta: Emolmec =         0.000000
siesta: Ekinion =         0.000000
siesta: Eharris =     -1030.673667
siesta: Etot    =     -1030.673801
siesta: FreeEng =     -1030.673801

siesta: Final energy (eV):
siesta:  Band Struct. =    -331.434844
siesta:       Kinetic =     319.059883
siesta:       Hartree =      59.996235
siesta:    Ext. field =       0.000000
siesta:   Exch.-corr. =    -445.956115
siesta:  Ion-electron =    -421.769598
siesta:       Ion-ion =    -542.004206
siesta:       Ekinion =       0.000000
siesta:         Total =   -1030.673801

siesta: Stress tensor (static) (eV/Ang**3):
siesta:     0.000234   -0.001388   -0.001388
siesta:    -0.001388    0.000234   -0.001388
siesta:    -0.001388   -0.001388    0.000234

siesta: Constrained stress tensor (static) (eV/Ang**3):
siesta:     0.000234   -0.001388   -0.001388
siesta:    -0.001388    0.000234   -0.001388
siesta:    -0.001388   -0.001388    0.000234

siesta: Cell volume =        168.408610 Ang**3

siesta: Pressure (static):
siesta:                Solid            Molecule  Units
siesta:          -0.00000255         -0.00001134  Ry/Bohr**3
siesta:          -0.00023421         -0.00104148  eV/Ang**3
siesta:          -0.37524554         -1.66864504  kBar
(Free)E+ p_basis*V_orbitals  =       -1021.736071
(Free)Eharris+ p_basis*V_orbitals  =       -1021.736882

* Maximum dynamic memory allocated : Node    0 =    89 MB

* Maximum memory occured during init_pulay_arrrays            

timer: CPU execution times:
timer:  Routine       Calls   Time/call    Tot.time        %
timer:  siesta            1     962.868     962.868   100.00
timer:  Setup             1       0.124       0.124     0.01
timer:  bands             3       0.508       1.524     0.16
timer:  writewave         3       0.007       0.020     0.00
timer:  KSV_init          1       0.000       0.000     0.00
timer:  IterMD           11      87.373     961.104    99.82
timer:  hsparse          11       0.163       1.796     0.19
timer:  overlap          11       0.127       1.396     0.14
timer:  IterSCF          54      14.583     787.505    81.79
timer:  kinefsm          22       0.127       2.792     0.29
timer:  nlefsm           22       3.710      81.629     8.48
timer:  DHSCF            65       8.414     546.938    56.80
timer:  DHSCF1           11       0.047       0.520     0.05
timer:  DHSCF2           11       2.197      24.165     2.51
timer:  REORD           412       0.000       0.008     0.00
timer:  POISON           76       0.005       0.356     0.04
timer:  DHSCF3           65       7.392     480.478    49.90
timer:  rhoofd           65       3.363     218.578    22.70
timer:  cellXC           65       0.116       7.532     0.78
timer:  vmat             65       3.907     253.972    26.38
timer:  MolMec           22       0.000       0.000     0.00
timer:  diagon           54       5.980     322.904    33.54
timer:  c-eigval       6253       0.016      98.334    10.21
timer:  c-buildHS      6253       0.011      69.816     7.25
timer:  cdiag         12406       0.007      87.463     9.08
timer:  cdiag1        12406       0.001       6.301     0.65
timer:  cdiag2        12406       0.002      22.876     2.38
timer:  cdiag3        12406       0.005      56.301     5.85
timer:  cdiag4        12406       0.000       1.632     0.17
timer:  c-eigvec       6153       0.021     127.970    13.29
timer:  c-buildD       6152       0.016      97.595    10.14
timer:  DHSCF4           11       3.797      41.763     4.34
timer:  dfscf            11       3.566      39.230     4.07
timer:  overfsm          11       0.119       1.312     0.14
timer:  optical           1       0.000       0.000     0.00
  

elaps: ELAPSED times:
elaps:  Routine       Calls   Time/call    Tot.time        %
elaps:  siesta            1     968.667     968.667   100.00
elaps:  Setup             1       0.126       0.126     0.01
elaps:  bands             3       0.510       1.530     0.16
elaps:  writewave         3       0.007       0.020     0.00
elaps:  KSV_init          1       0.000       0.000     0.00
elaps:  IterMD           11      87.899     966.891    99.82
elaps:  hsparse          11       0.164       1.807     0.19
elaps:  overlap          11       0.127       1.393     0.14
elaps:  IterSCF          54      14.670     792.187    81.78
elaps:  kinefsm          22       0.126       2.781     0.29
elaps:  nlefsm           22       3.734      82.155     8.48
elaps:  DHSCF            65       8.467     550.326    56.81
elaps:  DHSCF1           11       0.047       0.515     0.05
elaps:  DHSCF2           11       2.222      24.446     2.52
elaps:  REORD           412       0.000       0.033     0.00
elaps:  POISON           76       0.005       0.347     0.04
elaps:  DHSCF3           65       7.436     483.344    49.90
elaps:  rhoofd           65       3.380     219.701    22.68
elaps:  cellXC           65       0.117       7.576     0.78
elaps:  vmat             65       3.933     255.666    26.39
elaps:  MolMec           22       0.000       0.000     0.00
elaps:  diagon           54       6.013     324.719    33.52
elaps:  c-eigval       6253       0.016      98.884    10.21
elaps:  c-buildHS      6253       0.011      70.111     7.24
elaps:  cdiag         12406       0.007      88.113     9.10
elaps:  cdiag1        12406       0.001       6.557     0.68
elaps:  cdiag2        12406       0.002      23.093     2.38
elaps:  cdiag3        12406       0.005      56.537     5.84
elaps:  cdiag4        12406       0.000       1.631     0.17
elaps:  c-eigvec       6153       0.021     128.640    13.28
elaps:  c-buildD       6152       0.016      98.255    10.14
elaps:  DHSCF4           11       3.818      42.001     4.34
elaps:  dfscf            11       3.587      39.453     4.07
elaps:  overfsm          11       0.120       1.318     0.14
elaps:  optical           1       0.000       0.000     0.00
  
>> End of run:  10-MAY-2013   2:10:57

=====================================================================================
=   BAD TERMINATION OF ONE OF YOUR APPLICATION PROCESSES
=   EXIT CODE: 134
=   CLEANING UP REMAINING PROCESSES
=   YOU CAN IGNORE THE BELOW CLEANUP MESSAGES
=====================================================================================
APPLICATION TERMINATED WITH THE EXIT STRING: Aborted (signal 6)
