Siesta Version:                                        siesta-3.2
Architecture  : x86_64-unknown-linux-gnu--unknown
Compiler flags: f95 -g -O2
Siesta Version:                                        siesta-3.2
Architecture  : x86_64-unknown-linux-gnu--unknown
Compiler flags: f95 -g -O2
SERIAL version

* Running in serial mode
SERIAL version

* Running in serial mode
>> Start of run:   9-MAY-2013  16:16:54
>> Start of run:   9-MAY-2013  16:16:54

                           ***********************       
                           *  WELCOME TO SIESTA  *       

                           ***********************       
                           *  WELCOME TO SIESTA  *       
                           ***********************       
                           ***********************       

reinit: Reading from standard input

reinit: Reading from standard input
************************** Dump of input data file ****************************
# FDF for silicon
SystemName             silicon          # Descriptive name of the system
SystemLabel            si          # Short name for naming files
NumberOfAtoms 8
NumberOfSpecies 1
%block ChemicalSpeciesLabel
1 14 Si
%endblock ChemicalSpeciesLabel
LatticeConstant  5.50 Ang
##Basis set Definition##
PAO.BasisType          split        # Type of PAO basis set
PAO.EnergyShift        50 meV
PAO.BasisSize          DZP          # (DZP) Double-z + polarization
#%block LatticeVectors
#0.500 0.500 0.000
#0.500 0.000 0.500
#0.000 0.500 0.500
#%endblock LatticeVectors
AtomicCoordinatesFormat NotScaledCartesianAng
%block AtomicCoordinatesAndAtomicSpecies
	0.00000000	0.00000000	0.00000000  1 Si  1
	1.36000000	1.36000000	1.36000000  1 Si  2
	2.72000000	2.72000000	0.00000000  1 Si  3
	4.08000000	4.08000000	1.36000000  1 Si  4
	2.72000000	0.00000000	2.72000000  1 Si  5
	4.08000000	1.36000000	4.08000000  1 Si  6
	0.00000000	2.72000000	2.72000000  1 Si  7
	1.36000000	4.08000000	4.08000000  1 Si  8
%endblock AtomicCoordinatesAndAtomicSpecies
MeshCutoff 100.0 Ry # 100, 120, 180, 260
kgrid_cutoff 30.0 Bohr # 30, 35, 40, 45
DM.Mixingweight  0.3
DM.NumberPulay    3
DM.Tolerance      1.d-3
DM.UseSaveDM      true
ElectronicTemperature 25 meV
SolutionMethod    diagon
XC.functional     LDA	    # Local Density Approximation
XC.authors        CA           # Ceperley-Alder
SpinPolarized     false
MD.TypeOfRun           CG           # Type of dynamics:
MD.VariableCell        true
MD.NumCGsteps          100          # Number of CG steps for coordinate optimization
MD.MaxCGDispl          0.2 Bohr     # Maximum atomic displacement
                                    #   in one CG step (Bohr)
MD.MaxForceTol         0.04 eV/Ang  # Tolerance in the maximum
                                    #   atomic force (Ry/Bohr)
				
##Output Specification##
WriteMDhistory         true         # Trajectory information
WriteCoorStep          true
WriteCoorXmol          true
WriteMDXmol            true
WriteEigenvalues true
WriteKbands      true
WriteBands       true
WriteWaveFunctions true
WriteMullikenPoP   1
%block BandLines
1	1.000	1.000 1.000 L
25	0.000	0.000	0.000 \Gamma
30	2.000	0.000	0.000 X
10	2.000	0.500	0.500 U
35	0.000	0.000	0.000 \Gamma
%endblock BandLines
%block WaveFuncKPoints
0.0 0.0 0.0 from 1 to 50 # > 16 = 4/2*8 (Valenzelektronen/2, Atomzahl ...)
%endblock WaveFuncKpoints
************************** End of input data file *****************************

reinit: -----------------------------------------------------------------------
reinit: System Name: silicon
reinit: -----------------------------------------------------------------------
reinit: System Label: si                                                          
reinit: -----------------------------------------------------------------------

initatom: Reading input for the pseudopotentials and atomic orbitals ----------
 Species number:            1  Label: Si Atomic number:          14
Ground state valence configuration:   3s02  3p02
Reading pseudopotential information in formatted form from Si.psf

Valence configuration for pseudopotential generation:
3s( 2.00) rc: 1.75
3p( 2.00) rc: 1.94
3d( 0.00) rc: 2.09
4f( 0.00) rc: 2.09
************************** Dump of input data file ****************************
************************** End of input data file *****************************

reinit: -----------------------------------------------------------------------
reinit: System Name: 
reinit: -----------------------------------------------------------------------
reinit: System Label: siesta                                                      
reinit: -----------------------------------------------------------------------

initatom: Reading input for the pseudopotentials and atomic orbitals ----------
 Species number:            1  Label: Si Atomic number:          14
Ground state valence configuration:   3s02  3p02
Reading pseudopotential information in formatted form from Si.psf

Valence configuration for pseudopotential generation:
3s( 2.00) rc: 1.75
3p( 2.00) rc: 1.94
3d( 0.00) rc: 2.09
4f( 0.00) rc: 2.09
For Si, standard SIESTA heuristics set lmxkb to 3
 (one more than the basis l, including polarization orbitals).
Use PS.lmax or PS.KBprojectors blocks to override.

<basis_specs>
===============================================================================
Si                   Z=  14    Mass=  28.090        Charge= 0.17977+309
Lmxo=1 Lmxkb= 3    BasisType=split      Semic=F
L=0  Nsemic=0  Cnfigmx=3
          n=1  nzeta=2  polorb=0
            splnorm:   0.15000    
               vcte:    0.0000    
               rinn:    0.0000    
                rcs:    0.0000      0.0000    
            lambdas:    1.0000      1.0000    
L=1  Nsemic=0  Cnfigmx=3
          n=1  nzeta=2  polorb=1
            splnorm:   0.15000    
               vcte:    0.0000    
               rinn:    0.0000    
                rcs:    0.0000      0.0000    
            lambdas:    1.0000      1.0000    
-------------------------------------------------------------------------------
L=0  Nkbl=1  erefs: 0.17977+309
L=1  Nkbl=1  erefs: 0.17977+309
L=2  Nkbl=1  erefs: 0.17977+309
L=3  Nkbl=1  erefs: 0.17977+309
===============================================================================
</basis_specs>

atom: Called for Si                    (Z =  14)

read_vps: Pseudopotential generation method:
read_vps: ATM3      Troullier-Martins                       
Total valence charge:    4.00000

xc_check: Exchange-correlation functional:
xc_check: Ceperley-Alder
For Si, standard SIESTA heuristics set lmxkb to 3
 (one more than the basis l, including polarization orbitals).
Use PS.lmax or PS.KBprojectors blocks to override.

<basis_specs>
===============================================================================
Si                   Z=  14    Mass=  28.090        Charge= 0.17977+309
Lmxo=1 Lmxkb= 3    BasisType=split      Semic=F
L=0  Nsemic=0  Cnfigmx=3
          n=1  nzeta=2  polorb=0
            splnorm:   0.15000    
               vcte:    0.0000    
               rinn:    0.0000    
                rcs:    0.0000      0.0000    
            lambdas:    1.0000      1.0000    
L=1  Nsemic=0  Cnfigmx=3
          n=1  nzeta=2  polorb=1
            splnorm:   0.15000    
               vcte:    0.0000    
               rinn:    0.0000    
                rcs:    0.0000      0.0000    
            lambdas:    1.0000      1.0000    
-------------------------------------------------------------------------------
L=0  Nkbl=1  erefs: 0.17977+309
L=1  Nkbl=1  erefs: 0.17977+309
L=2  Nkbl=1  erefs: 0.17977+309
L=3  Nkbl=1  erefs: 0.17977+309
===============================================================================
</basis_specs>

atom: Called for Si                    (Z =  14)

read_vps: Pseudopotential generation method:
read_vps: ATM3      Troullier-Martins                       
Total valence charge:    4.00000

xc_check: Exchange-correlation functional:
xc_check: Ceperley-Alder
V l=0 = -2*Zval/r beyond r=  2.5494
V l=1 = -2*Zval/r beyond r=  2.5494
V l=2 = -2*Zval/r beyond r=  2.5494
V l=3 = -2*Zval/r beyond r=  2.5494
All V_l potentials equal beyond r=  2.0613
This should be close to max(r_c) in ps generation
All pots = -2*Zval/r beyond r=  2.5494

VLOCAL1: 99.0% of the norm of Vloc inside     10.216 Ry
VLOCAL1: 99.9% of the norm of Vloc inside     23.282 Ry
atom: Maximum radius for 4*pi*r*r*local-pseudopot. charge    2.45560
atom: Maximum radius for r*vlocal+2*Zval:    2.14012
V l=0 = -2*Zval/r beyond r=  2.5494
V l=1 = -2*Zval/r beyond r=  2.5494
V l=2 = -2*Zval/r beyond r=  2.5494
V l=3 = -2*Zval/r beyond r=  2.5494
All V_l potentials equal beyond r=  2.0613
This should be close to max(r_c) in ps generation
All pots = -2*Zval/r beyond r=  2.5494

VLOCAL1: 99.0% of the norm of Vloc inside     10.216 Ry
VLOCAL1: 99.9% of the norm of Vloc inside     23.282 Ry
atom: Maximum radius for 4*pi*r*r*local-pseudopot. charge    2.45560
GHOST: No ghost state for L =  0
atom: Maximum radius for r*vlocal+2*Zval:    2.14012
GHOST: No ghost state for L =  1
GHOST: No ghost state for L =  0
GHOST: No ghost state for L =  2
GHOST: No ghost state for L =  1
GHOST: No ghost state for L =  3

KBgen: Kleinman-Bylander projectors: 
   l= 0   rc=  2.782581   el= -0.796617   Ekb=  4.840502   kbcos=  0.288423
   l= 1   rc=  2.888916   el= -0.307040   Ekb=  1.512733   kbcos=  0.296968
   l= 2   rc=  2.962054   el=  0.002313   Ekb= -2.156507   kbcos= -0.061834
   l= 3   rc=  3.192765   el=  0.003402   Ekb= -0.600958   kbcos= -0.007408

KBgen: Total number of  Kleinman-Bylander projectors:   16
atom: -------------------------------------------------------------------------

atom: SANKEY-TYPE ORBITALS:
atom: Selected multiple-zeta basis: split     
GHOST: No ghost state for L =  2

SPLIT: Orbitals with angular momentum L= 0

SPLIT: Basis orbitals for state 3s

SPLIT: PAO cut-off radius determined from an
SPLIT: energy shift=  0.003675 Ry
GHOST: No ghost state for L =  3

KBgen: Kleinman-Bylander projectors: 
   l= 0   rc=  2.782581   el= -0.796617   Ekb=  4.840502   kbcos=  0.288423
   l= 1   rc=  2.888916   el= -0.307040   Ekb=  1.512733   kbcos=  0.296968
   l= 2   rc=  2.962054   el=  0.002313   Ekb= -2.156507   kbcos= -0.061834
   l= 3   rc=  3.192765   el=  0.003402   Ekb= -0.600958   kbcos= -0.007408

KBgen: Total number of  Kleinman-Bylander projectors:   16
atom: -------------------------------------------------------------------------

atom: SANKEY-TYPE ORBITALS:
atom: Selected multiple-zeta basis: split     

SPLIT: Orbitals with angular momentum L= 0

SPLIT: Basis orbitals for state 3s

   izeta = 1
                 lambda =    1.000000
                     rc =    6.116033
                 energy =   -0.793486
                kinetic =    0.528761
    potential(screened) =   -1.322246
       potential(ionic) =   -3.766038

SPLIT: PAO cut-off radius determined from an
SPLIT: energy shift=  0.003675 Ry

   izeta = 1
                 lambda =    1.000000
                     rc =    6.116033

   izeta = 2
                 energy =   -0.793486
                 rmatch =    4.530823
              splitnorm =    0.150000
                kinetic =    0.528761
    potential(screened) =   -1.322246
                 energy =   -0.697320
                kinetic =    0.853435
       potential(ionic) =   -3.766038
    potential(screened) =   -1.550756
       potential(ionic) =   -4.120809

   izeta = 2

SPLIT: Orbitals with angular momentum L= 1

SPLIT: Basis orbitals for state 3p
                 rmatch =    4.530823
              splitnorm =    0.150000
                 energy =   -0.697320
                kinetic =    0.853435
    potential(screened) =   -1.550756
       potential(ionic) =   -4.120809

SPLIT: PAO cut-off radius determined from an
SPLIT: energy shift=  0.003675 Ry

SPLIT: Orbitals with angular momentum L= 1

SPLIT: Basis orbitals for state 3p

   izeta = 1
                 lambda =    1.000000
                     rc =    7.853192
                 energy =   -0.303674
                kinetic =    0.798475
    potential(screened) =   -1.102149
       potential(ionic) =   -3.307324

SPLIT: PAO cut-off radius determined from an
SPLIT: energy shift=  0.003675 Ry

   izeta = 2
                 rmatch =    5.397360
              splitnorm =    0.150000
                 energy =   -0.229357
                kinetic =    1.170483
    potential(screened) =   -1.399841
       potential(ionic) =   -3.814095

   izeta = 1
                 lambda =    1.000000
                     rc =    7.853192
                 energy =   -0.303674
                kinetic =    0.798475
    potential(screened) =   -1.102149
       potential(ionic) =   -3.307324

   izeta = 2
                 rmatch =    5.397360
              splitnorm =    0.150000
                 energy =   -0.229357
                kinetic =    1.170483
    potential(screened) =   -1.399841
       potential(ionic) =   -3.814095

POLgen: Perturbative polarization orbital with L=  2

POLgen: Polarization orbital for state 3p

POLgen: Perturbative polarization orbital with L=  2

POLgen: Polarization orbital for state 3p

   izeta = 1
                     rc =    7.853192
                 energy =    0.331669
                kinetic =    1.088595
    potential(screened) =   -0.756926
       potential(ionic) =   -2.714870
atom: Total number of Sankey-type orbitals: 13

atm_pop: Valence configuration (for local Pseudopot. screening):
 3s( 2.00)                                                            
 3p( 2.00)                                                            
Vna: chval, zval:    4.00000   4.00000

Vna:  Cut-off radius for the neutral-atom potential:   7.853192

atom: _________________________________________________________________________

prinput: Basis input ----------------------------------------------------------

PAO.BasisType split     

%block ChemicalSpeciesLabel
    1   14 Si                      # Species index, atomic number, species label
%endblock ChemicalSpeciesLabel

%block PAO.Basis                 # Define Basis set
Si                    2                    # Species label, number of l-shells
 n=3   0   2                         # n, l, Nzeta 
   6.116      4.531   
   1.000      1.000   
 n=3   1   2 P   1                   # n, l, Nzeta, Polarization, NzetaPol
   7.853      5.397   
   1.000      1.000   
%endblock PAO.Basis

prinput: ----------------------------------------------------------------------


   izeta = 1
                     rc =    7.853192
                 energy =    0.331669
                kinetic =    1.088595
    potential(screened) =   -0.756926
       potential(ionic) =   -2.714870
atom: Total number of Sankey-type orbitals: 13

atm_pop: Valence configuration (for local Pseudopot. screening):
 3s( 2.00)                                                            
 3p( 2.00)                                                            
Vna: chval, zval:    4.00000   4.00000

Vna:  Cut-off radius for the neutral-atom potential:   7.853192

atom: _________________________________________________________________________

prinput: Basis input ----------------------------------------------------------

PAO.BasisType split     

%block ChemicalSpeciesLabel
    1   14 Si                      # Species index, atomic number, species label
%endblock ChemicalSpeciesLabel

%block PAO.Basis                 # Define Basis set
Si                    2                    # Species label, number of l-shells
 n=3   0   2                         # n, l, Nzeta 
   6.116      4.531   
   1.000      1.000   
 n=3   1   2 P   1                   # n, l, Nzeta, Polarization, NzetaPol
   7.853      5.397   
   1.000      1.000   
%endblock PAO.Basis

prinput: ----------------------------------------------------------------------

coor:   Atomic-coordinates input format  =     Cartesian coordinates
coor:                                          (in Angstroms)
coor:   Atomic-coordinates input format  =     Cartesian coordinates
coor:                                          (in Angstroms)

siesta: Atomic coordinates (Bohr) and species
siesta:      0.00000   0.00000   0.00000  1        1
siesta:      2.57003   2.57003   2.57003  1        2
siesta:      5.14006   5.14006   0.00000  1        3
siesta:      7.71009   7.71009   2.57003  1        4
siesta:      5.14006   0.00000   5.14006  1        5
siesta:      7.71009   2.57003   7.71009  1        6
siesta:      0.00000   5.14006   5.14006  1        7
siesta:      2.57003   7.71009   7.71009  1        8

siesta: System type = bulk      

initatomlists: Number of atoms, orbitals, and projectors:      8   104   128

siesta: ******************** Simulation parameters ****************************
siesta:
siesta: The following are some of the parameters of the simulation.
siesta: A complete list of the parameters used, including default values,
siesta: can be found in file out.fdf
siesta:
redata: Non-Collinear-spin run           =     F
redata: SpinPolarized (Up/Down) run      =     F
redata: Number of spin components        =     1

siesta: Atomic coordinates (Bohr) and species
siesta:      0.00000   0.00000   0.00000  1        1
redata: Long output                      =     F
siesta:      2.57003   2.57003   2.57003  1        2
siesta:      5.14006   5.14006   0.00000  1        3
siesta:      7.71009   7.71009   2.57003  1        4
siesta:      5.14006   0.00000   5.14006  1        5
siesta:      7.71009   2.57003   7.71009  1        6
siesta:      0.00000   5.14006   5.14006  1        7
siesta:      2.57003   7.71009   7.71009  1        8
redata: Number of Atomic Species         =        1

siesta: System type = bulk      
redata: Charge density info will appear in .RHO file
redata: Write Mulliken Pop.              =     Atomic and Orbital charges
redata: Mesh Cutoff                      =   100.0000  Ry
redata: Net charge of the system         =     0.0000 |e|
redata: Max. number of SCF Iter          =       50

initatomlists: Number of atoms, orbitals, and projectors:      8   104   128
redata: Performing Pulay mixing using    =     3 iterations

siesta: ******************** Simulation parameters ****************************
siesta:
siesta: The following are some of the parameters of the simulation.
siesta: A complete list of the parameters used, including default values,
siesta: can be found in file out.fdf
siesta:
redata: Mix DM in first SCF step ?       =     F
redata: Write Pulay info on disk?        =     F
redata: Non-Collinear-spin run           =     F
redata: SpinPolarized (Up/Down) run      =     F
redata: Number of spin components        =     1
redata: Discard 1st Pulay DM after  kick =     F
redata: New DM Mixing Weight             =     0.3000
redata: Long output                      =     F
redata: Number of Atomic Species         =        1
redata: New DM Occupancy tolerance       = 0.000000000001
redata: Charge density info will appear in .RHO file
redata: No kicks to SCF
redata: Write Mulliken Pop.              =     Atomic and Orbital charges
redata: DM Mixing Weight for Kicks       =     0.5000
redata: DM Tolerance for SCF             =     0.001000
redata: Require Energy convergence for SCF =     F
redata: DM Energy tolerance for SCF      =     0.000100 eV
redata: Mesh Cutoff                      =   100.0000  Ry
redata: Require Harris convergence for SCF =     F
redata: Net charge of the system         =     0.0000 |e|
redata: DM Harris energy tolerance for SCF =     0.000100 eV
redata: Using Saved Data (generic)   =     F
redata: Use continuation files for DM    =     T
redata: Max. number of SCF Iter          =       50
redata: Neglect nonoverlap interactions  =     F
redata: Method of Calculation            =     Diagonalization
redata: Divide and Conquer               =     T
redata: Performing Pulay mixing using    =     3 iterations
redata: Electronic Temperature           =     0.0018  Ry
redata: Mix DM in first SCF step ?       =     F
redata: Fix the spin of the system       =     F
redata: Write Pulay info on disk?        =     F
redata: Discard 1st Pulay DM after  kick =     F
redata: New DM Mixing Weight             =     0.3000
redata: New DM Occupancy tolerance       = 0.000000000001
redata: No kicks to SCF
redata: DM Mixing Weight for Kicks       =     0.5000
redata: DM Tolerance for SCF             =     0.001000
redata: Require Energy convergence for SCF =     F
redata: DM Energy tolerance for SCF      =     0.000100 eV
redata: Require Harris convergence for SCF =     F
redata: DM Harris energy tolerance for SCF =     0.000100 eV
redata: Using Saved Data (generic)   =     F
redata: Use continuation files for DM    =     T
redata: Dynamics option                  =     CG coord. optimization
redata: Variable cell                    =     T
redata: Use continuation files for CG    =     F
redata: Max atomic displ per move        =     0.2000  Bohr
redata: Maximum number of CG moves       =      100
redata: Force tolerance                  =     0.0016  Ry/Bohr
redata: Stress tolerance                 =     1.0000  GPa
redata: Neglect nonoverlap interactions  =     F
redata: Method of Calculation            =     Diagonalization
redata: Divide and Conquer               =     T
redata: Electronic Temperature           =     0.0018  Ry
redata: Fix the spin of the system       =     F
redata: ***********************************************************************
redata: Dynamics option                  =     CG coord. optimization
redata: Variable cell                    =     T
redata: Use continuation files for CG    =     F
redata: Max atomic displ per move        =     0.2000  Bohr
redata: Maximum number of CG moves       =      100
redata: Force tolerance                  =     0.0016  Ry/Bohr
redata: Stress tolerance                 =     1.0000  GPa
redata: ***********************************************************************
Total number of electrons:    32.000000
Total ionic charge:    32.000000
 Kpoints in:          108 . Kpoints trimmed:          108

siesta: k-grid: Number of k-points =   108
siesta: k-grid: Cutoff (effective) =    16.500 Ang
siesta: k-grid: Supercell and displacements
siesta: k-grid:    0   6   0      0.500
siesta: k-grid:    0   0   6      0.500
siesta: k-grid:    6   0   0      0.500
Total number of electrons:    32.000000
Total ionic charge:    32.000000
 Kpoints in:          108 . Kpoints trimmed:          108

siesta: k-grid: Number of k-points =   108
siesta: k-grid: Cutoff (effective) =    16.500 Ang
siesta: k-grid: Supercell and displacements
siesta: k-grid:    0   6   0      0.500
siesta: k-grid:    0   0   6      0.500
siesta: k-grid:    6   0   0      0.500
Naive supercell factors:     5    5    5

superc: Internal auxiliary supercell:     5 x     5 x     5  =     125
superc: Number of atoms, orbitals, and projectors:   1000  13000  16000

* Maximum dynamic memory allocated =     1 MB

siesta:                 ==============================
                            Begin CG move =      0
                        ==============================

outcoor: Atomic coordinates (Ang):                          
    0.00000000    0.00000000    0.00000000   1       1  Si
    1.36000000    1.36000000    1.36000000   1       2  Si
    2.72000000    2.72000000    0.00000000   1       3  Si
    4.08000000    4.08000000    1.36000000   1       4  Si
    2.72000000    0.00000000    2.72000000   1       5  Si
    4.08000000    1.36000000    4.08000000   1       6  Si
    0.00000000    2.72000000    2.72000000   1       7  Si
    1.36000000    4.08000000    4.08000000   1       8  Si

superc: Internal auxiliary supercell:     5 x     5 x     5  =     125
superc: Number of atoms, orbitals, and projectors:   1000  13000  16000

outcell: Unit cell vectors (Ang):
        5.500000    0.000000    0.000000
        0.000000    5.500000    0.000000
        0.000000    0.000000    5.500000

outcell: Cell vector modules (Ang)   :    5.500000    5.500000    5.500000
outcell: Cell angles (23,13,12) (deg):     90.0000     90.0000     90.0000
outcell: Cell volume (Ang**3)        :    166.3750
Naive supercell factors:     5    5    5

superc: Internal auxiliary supercell:     5 x     5 x     5  =     125
superc: Number of atoms, orbitals, and projectors:   1000  13000  16000

* Maximum dynamic memory allocated =     1 MB

siesta:                 ==============================
                            Begin CG move =      0
                        ==============================

outcoor: Atomic coordinates (Ang):                          
    0.00000000    0.00000000    0.00000000   1       1  Si
    1.36000000    1.36000000    1.36000000   1       2  Si
    2.72000000    2.72000000    0.00000000   1       3  Si
    4.08000000    4.08000000    1.36000000   1       4  Si
    2.72000000    0.00000000    2.72000000   1       5  Si
    4.08000000    1.36000000    4.08000000   1       6  Si
    0.00000000    2.72000000    2.72000000   1       7  Si
    1.36000000    4.08000000    4.08000000   1       8  Si

superc: Internal auxiliary supercell:     5 x     5 x     5  =     125
superc: Number of atoms, orbitals, and projectors:   1000  13000  16000

outcell: Unit cell vectors (Ang):
        5.500000    0.000000    0.000000
        0.000000    5.500000    0.000000
        0.000000    0.000000    5.500000

outcell: Cell vector modules (Ang)   :    5.500000    5.500000    5.500000
outcell: Cell angles (23,13,12) (deg):     90.0000     90.0000     90.0000
outcell: Cell volume (Ang**3)        :    166.3750
New_DM. Step:     1
Initializing Density Matrix...
New_DM. Step:     1
Initializing Density Matrix...

InitMesh: MESH =    36 x    36 x    36 =       46656
InitMesh: Mesh cutoff (required, used) =   100.000   118.408 Ry

InitMesh: MESH =    36 x    36 x    36 =       46656
InitMesh: Mesh cutoff (required, used) =   100.000   118.408 Ry

* Maximum dynamic memory allocated =    75 MB

* Maximum dynamic memory allocated =    75 MB

stepf: Fermi-Dirac step function

stepf: Fermi-Dirac step function

siesta: Program's energy decomposition (eV):
siesta: Ebs     =      -349.720487
siesta: Eions   =      1510.441798
siesta: Ena     =       467.194968
siesta: Ekin    =       288.938730
siesta: Enl     =       133.986997
siesta: DEna    =         0.000001
siesta: DUscf   =         0.000000
siesta: DUext   =         0.000000
siesta: Exc     =      -253.415524
siesta: eta*DQ  =         0.000000
siesta: Emadel  =         0.000000
siesta: Emeta   =         0.000000
siesta: Emolmec =         0.000000
siesta: Ekinion =         0.000000
siesta: Eharris =      -862.283909
siesta: Etot    =      -873.736626
siesta: FreeEng =      -873.736626

siesta: iscf   Eharris(eV)      E_KS(eV)   FreeEng(eV)   dDmax  Ef(eV)
siesta:    1     -862.2839     -873.7366     -873.7366  1.7440 -5.5193
timer: Routine,Calls,Time,% = IterSCF        1      19.017  96.92
elaps: Routine,Calls,Wall,% = IterSCF        1      19.086  96.91

siesta: Program's energy decomposition (eV):
siesta: Ebs     =      -349.720487
siesta: Eions   =      1510.441798
siesta: Ena     =       467.194968
siesta: Ekin    =       288.938730
siesta: Enl     =       133.986997
siesta: DEna    =         0.000001
siesta: DUscf   =         0.000000
siesta: DUext   =         0.000000
siesta: Exc     =      -253.415524
siesta: eta*DQ  =         0.000000
siesta: Emadel  =         0.000000
siesta: Emeta   =         0.000000
siesta: Emolmec =         0.000000
siesta: Ekinion =         0.000000
siesta: Eharris =      -862.283909
siesta: Etot    =      -873.736626
siesta: FreeEng =      -873.736626

siesta: iscf   Eharris(eV)      E_KS(eV)   FreeEng(eV)   dDmax  Ef(eV)
siesta:    1     -862.2839     -873.7366     -873.7366  1.7440 -5.5193
timer: Routine,Calls,Time,% = IterSCF        1      19.077  96.93
elaps: Routine,Calls,Wall,% = IterSCF        1      19.166  96.93
siesta:    2     -861.8903     -861.7749     -861.7749  0.0981 -5.2201
siesta:    2     -861.8903     -861.7749     -861.7749  0.0981 -5.2201
siesta:    3     -861.8699     -862.4227     -862.4227  0.0551 -5.2565
siesta:    3     -861.8699     -862.4227     -862.4227  0.0551 -5.2565
siesta:    4     -861.8655     -861.8513     -861.8513  0.0021 -5.2770
siesta:    4     -861.8655     -861.8513     -861.8513  0.0021 -5.2770
siesta:    5     -861.8654     -861.8624     -861.8624  0.0022 -5.2772
siesta:    5     -861.8654     -861.8624     -861.8624  0.0022 -5.2772
siesta:    6     -861.8655     -861.8709     -861.8709  0.0012 -5.2780
siesta:    6     -861.8655     -861.8709     -861.8709  0.0012 -5.2780
siesta:    7     -861.8655     -861.8683     -861.8683  0.0006 -5.2779
siesta:    7     -861.8655     -861.8683     -861.8683  0.0006 -5.2779

siesta: E_KS(eV) =             -861.8658

siesta: E_KS - E_eggbox =      -861.8658

siesta: Atomic forces (eV/Ang):
----------------------------------------
   Tot    0.001712    0.001714    0.001709
----------------------------------------
   Max    0.451381
   Res    0.311315    sqrt( Sum f_i^2 / 3N )
----------------------------------------
   Max    0.451381    constrained

Stress-tensor-Voigt (kbar):       26.24       26.24       26.24       -5.01       -5.01       -5.01
(Free)E + p*V (eV/cell)     -864.5905
Target enthalpy (eV/cell)     -861.8658

siesta: Stress tensor (static) (eV/Ang**3):
         0.016377   -0.003127   -0.003127
        -0.003127    0.016377   -0.003127
        -0.003127   -0.003127    0.016377

siesta: Pressure (static):        -26.23876127  kBar

siesta: Stress tensor (total) (eV/Ang**3):
         0.016377   -0.003127   -0.003127
        -0.003127    0.016377   -0.003127
        -0.003127   -0.003127    0.016377

siesta: Pressure (total):        -26.23876127  kBar

mulliken: Mulliken Atomic and Orbital Populations:

Species: Si                  
Atom  Qatom  Qorb
               3s      3s      3py     3pz     3px     3py     3pz     3px     
               3Pdxy   3Pdyz   3Pdz2   3Pdxz   3Pdx2-y2
   1  4.000   0.692   0.544   0.264   0.264   0.264   0.496   0.496   0.496
              0.116   0.116   0.068   0.116   0.068
   2  4.002   0.628   0.576   0.229   0.229   0.229   0.530   0.530   0.530
              0.124   0.124   0.076   0.124   0.076
   3  4.000   0.648   0.566   0.247   0.228   0.247   0.514   0.526   0.514
              0.120   0.122   0.075   0.122   0.071
   4  3.999   0.669   0.555   0.246   0.264   0.246   0.511   0.500   0.511
              0.120   0.118   0.069   0.118   0.072
   5  4.000   0.648   0.566   0.228   0.247   0.247   0.526   0.514   0.514
              0.122   0.122   0.072   0.120   0.074
   6  3.999   0.669   0.555   0.264   0.246   0.246   0.500   0.511   0.511
              0.118   0.118   0.071   0.120   0.070
   7  4.000   0.648   0.566   0.247   0.247   0.228   0.514   0.514   0.526
              0.122   0.120   0.072   0.122   0.074
   8  3.999   0.669   0.555   0.246   0.246   0.264   0.511   0.511   0.500
              0.118   0.120   0.071   0.118   0.070

mulliken: Qtot =       32.000

cgvc: No target stress found, assuming hydrostatic MD.TargetPressure.

cgvc: Target stress (kBar)
cgvc:        -0.000       0.000       0.000
cgvc:         0.000      -0.000       0.000
cgvc:         0.000       0.000      -0.000

* Maximum dynamic memory allocated =    76 MB

siesta:                 ==============================
                            Begin CG move =      1
                        ==============================

outcoor: Atomic coordinates (Ang):                          
   -0.02553478   -0.02553479   -0.02553462   1       1  Si
    1.35181262    1.35181248    1.35181235   1       2  Si
    2.70862064    2.70862067   -0.01967661   1       3  Si
    4.08579099    4.08579084    1.36013177   1       4  Si
    2.70862067   -0.01967777    2.70862060   1       5  Si
    4.08579093    1.36013181    4.08579045   1       6  Si
   -0.01967790    2.70862093    2.70862078   1       7  Si
    1.36013181    4.08579097    4.08579043   1       8  Si
 Kpoints in:          108 . Kpoints trimmed:          108

siesta: k-grid: Number of k-points =   108
siesta: k-grid: Cutoff (effective) =    16.394 Ang
siesta: k-grid: Supercell and displacements
siesta: k-grid:    0   0   6      0.500
siesta: k-grid:    6   0   0      0.500
siesta: k-grid:    0   6   0      0.500
Naive supercell factors:     5    5    5

superc: Internal auxiliary supercell:     5 x     5 x     5  =     125
superc: Number of atoms, orbitals, and projectors:   1000  13000  16000

outcell: Unit cell vectors (Ang):
        5.464806    0.006721    0.006721
        0.006721    5.464806    0.006721
        0.006721    0.006721    5.464806

outcell: Cell vector modules (Ang)   :    5.464814    5.464814    5.464814
outcell: Cell angles (23,13,12) (deg):     89.8590     89.8590     89.8590
outcell: Cell volume (Ang**3)        :    163.2008
New_DM. Step:     2
Re-using DM from previous geometry...

siesta: E_KS(eV) =             -861.8658

siesta: E_KS - E_eggbox =      -861.8658

siesta: Atomic forces (eV/Ang):
----------------------------------------
   Tot    0.001712    0.001714    0.001709
----------------------------------------
   Max    0.451381
   Res    0.311315    sqrt( Sum f_i^2 / 3N )
----------------------------------------
   Max    0.451381    constrained

Stress-tensor-Voigt (kbar):       26.24       26.24       26.24       -5.01       -5.01       -5.01
(Free)E + p*V (eV/cell)     -864.5905
Target enthalpy (eV/cell)     -861.8658

siesta: Stress tensor (static) (eV/Ang**3):
         0.016377   -0.003127   -0.003127
        -0.003127    0.016377   -0.003127
        -0.003127   -0.003127    0.016377

siesta: Pressure (static):        -26.23876127  kBar

siesta: Stress tensor (total) (eV/Ang**3):
         0.016377   -0.003127   -0.003127
        -0.003127    0.016377   -0.003127
        -0.003127   -0.003127    0.016377

siesta: Pressure (total):        -26.23876127  kBar

mulliken: Mulliken Atomic and Orbital Populations:

Species: Si                  
Atom  Qatom  Qorb
               3s      3s      3py     3pz     3px     3py     3pz     3px     
               3Pdxy   3Pdyz   3Pdz2   3Pdxz   3Pdx2-y2
   1  4.000   0.692   0.544   0.264   0.264   0.264   0.496   0.496   0.496
              0.116   0.116   0.068   0.116   0.068
   2  4.002   0.628   0.576   0.229   0.229   0.229   0.530   0.530   0.530
              0.124   0.124   0.076   0.124   0.076
   3  4.000   0.648   0.566   0.247   0.228   0.247   0.514   0.526   0.514
              0.120   0.122   0.075   0.122   0.071
   4  3.999   0.669   0.555   0.246   0.264   0.246   0.511   0.500   0.511
              0.120   0.118   0.069   0.118   0.072
   5  4.000   0.648   0.566   0.228   0.247   0.247   0.526   0.514   0.514
              0.122   0.122   0.072   0.120   0.074
   6  3.999   0.669   0.555   0.264   0.246   0.246   0.500   0.511   0.511
              0.118   0.118   0.071   0.120   0.070
   7  4.000   0.648   0.566   0.247   0.247   0.228   0.514   0.514   0.526
              0.122   0.120   0.072   0.122   0.074
Re-using DM without extrapolation (not allowed)
Density Matrix sparsity pattern changed.
   8  3.999   0.669   0.555   0.246   0.246   0.264   0.511   0.511   0.500
              0.118   0.120   0.071   0.118   0.070

mulliken: Qtot =       32.000

cgvc: No target stress found, assuming hydrostatic MD.TargetPressure.

cgvc: Target stress (kBar)
cgvc:        -0.000       0.000       0.000
cgvc:         0.000      -0.000       0.000
cgvc:         0.000       0.000      -0.000

* Maximum dynamic memory allocated =    76 MB

siesta:                 ==============================
                            Begin CG move =      1
                        ==============================

outcoor: Atomic coordinates (Ang):                          
   -0.02553478   -0.02553479   -0.02553462   1       1  Si
    1.35181262    1.35181248    1.35181235   1       2  Si
    2.70862064    2.70862067   -0.01967661   1       3  Si
    4.08579099    4.08579084    1.36013177   1       4  Si
    2.70862067   -0.01967777    2.70862060   1       5  Si
    4.08579093    1.36013181    4.08579045   1       6  Si
   -0.01967790    2.70862093    2.70862078   1       7  Si
    1.36013181    4.08579097    4.08579043   1       8  Si
 Kpoints in:          108 . Kpoints trimmed:          108

siesta: k-grid: Number of k-points =   108
siesta: k-grid: Cutoff (effective) =    16.394 Ang
siesta: k-grid: Supercell and displacements
siesta: k-grid:    0   0   6      0.500
siesta: k-grid:    6   0   0      0.500
siesta: k-grid:    0   6   0      0.500
Naive supercell factors:     5    5    5

superc: Internal auxiliary supercell:     5 x     5 x     5  =     125
superc: Number of atoms, orbitals, and projectors:   1000  13000  16000

outcell: Unit cell vectors (Ang):
        5.464806    0.006721    0.006721
        0.006721    5.464806    0.006721
        0.006721    0.006721    5.464806

outcell: Cell vector modules (Ang)   :    5.464814    5.464814    5.464814
outcell: Cell angles (23,13,12) (deg):     89.8590     89.8590     89.8590
outcell: Cell volume (Ang**3)        :    163.2008
New_DM. Step:     2
Re-using DM from previous geometry...
Re-using DM without extrapolation (not allowed)
Density Matrix sparsity pattern changed.

InitMesh: MESH =    36 x    36 x    36 =       46656
InitMesh: Mesh cutoff (required, used) =   100.000   119.939 Ry

InitMesh: MESH =    36 x    36 x    36 =       46656
InitMesh: Mesh cutoff (required, used) =   100.000   119.939 Ry

siesta: iscf   Eharris(eV)      E_KS(eV)   FreeEng(eV)   dDmax  Ef(eV)
siesta:    1     -861.9829     -862.4240     -862.4240  0.0190 -5.3096

siesta: iscf   Eharris(eV)      E_KS(eV)   FreeEng(eV)   dDmax  Ef(eV)
siesta:    1     -861.9829     -862.4240     -862.4240  0.0190 -5.3096
siesta:    2     -862.0655     -861.9023     -861.9023  0.0384 -5.2972
siesta:    2     -862.0655     -861.9023     -861.9023  0.0384 -5.2972
siesta:    3     -861.9560     -862.0291     -862.0291  0.0065 -5.2947
siesta:    3     -861.9560     -862.0291     -862.0291  0.0065 -5.2947
siesta:    4     -861.9559     -861.9375     -861.9375  0.0010 -5.2925
siesta:    4     -861.9559     -861.9375     -861.9375  0.0010 -5.2925
siesta:    5     -861.9559     -861.9424     -861.9424  0.0007 -5.2931
siesta:    5     -861.9559     -861.9424     -861.9424  0.0007 -5.2931

siesta: E_KS(eV) =             -861.9523

siesta: Atomic forces (eV/Ang):
----------------------------------------
   Tot   -0.008983   -0.008979   -0.009002
----------------------------------------
   Max    0.168485
   Res    0.132926    sqrt( Sum f_i^2 / 3N )
----------------------------------------
   Max    0.168485    constrained

Stress-tensor-Voigt (kbar):       11.33       11.33       11.33        5.65        5.65        5.65
(Free)E + p*V (eV/cell)     -863.1062
Target enthalpy (eV/cell)     -861.9523

siesta: Stress tensor (static) (eV/Ang**3):
         0.007070    0.003525    0.003525
         0.003525    0.007070    0.003525
         0.003525    0.003525    0.007070

siesta: Pressure (static):        -11.32763672  kBar

siesta: Stress tensor (total) (eV/Ang**3):
         0.007070    0.003525    0.003525
         0.003525    0.007070    0.003525
         0.003525    0.003525    0.007070

siesta: Pressure (total):        -11.32763672  kBar

mulliken: Mulliken Atomic and Orbital Populations:

Species: Si                  
Atom  Qatom  Qorb
               3s      3s      3py     3pz     3px     3py     3pz     3px     
               3Pdxy   3Pdyz   3Pdz2   3Pdxz   3Pdx2-y2
   1  4.000   0.649   0.565   0.231   0.231   0.231   0.526   0.526   0.526
              0.122   0.122   0.074   0.122   0.074
   2  4.000   0.645   0.567   0.230   0.230   0.230   0.527   0.527   0.527
              0.123   0.123   0.074   0.123   0.074
   3  4.000   0.645   0.567   0.230   0.228   0.230   0.527   0.528   0.527
              0.123   0.123   0.074   0.123   0.074
   4  4.000   0.647   0.566   0.231   0.232   0.231   0.526   0.526   0.526
              0.123   0.123   0.074   0.123   0.074
   5  4.000   0.645   0.567   0.228   0.230   0.230   0.528   0.527   0.527
              0.123   0.123   0.074   0.123   0.074
   6  4.000   0.647   0.566   0.232   0.231   0.231   0.526   0.526   0.526
              0.123   0.123   0.074   0.123   0.074
   7  4.000   0.645   0.567   0.230   0.230   0.228   0.527   0.527   0.528
              0.123   0.123   0.074   0.123   0.074
   8  4.000   0.647   0.566   0.231   0.231   0.232   0.526   0.526   0.526
              0.123   0.123   0.074   0.123   0.074

mulliken: Qtot =       32.000

* Maximum dynamic memory allocated =    85 MB

siesta:                 ==============================
                            Begin CG move =      2
                        ==============================

outcoor: Atomic coordinates (Ang):                          
   -0.02411929   -0.02411930   -0.02411915   1       1  Si
    1.35226760    1.35226747    1.35226734   1       2  Si
    2.70925627    2.70925629   -0.01859102   1       3  Si
    4.08547574    4.08547560    1.36012077   1       4  Si
    2.70925629   -0.01859211    2.70925623   1       5  Si
    4.08547569    1.36012081    4.08547524   1       6  Si
   -0.01859224    2.70925654    2.70925639   1       7  Si
    1.36012081    4.08547573    4.08547522   1       8  Si
 Kpoints in:          108 . Kpoints trimmed:          108

siesta: k-grid: Number of k-points =   108
siesta: k-grid: Cutoff (effective) =    16.400 Ang
siesta: k-grid: Supercell and displacements
siesta: k-grid:    0   0   6      0.500
siesta: k-grid:    6   0   0      0.500
siesta: k-grid:    0   6   0      0.500
Naive supercell factors:     5    5    5

superc: Internal auxiliary supercell:     5 x     5 x     5  =     125
superc: Number of atoms, orbitals, and projectors:   1000  13000  16000

outcell: Unit cell vectors (Ang):
        5.466764    0.006347    0.006347
        0.006347    5.466764    0.006347
        0.006347    0.006347    5.466764

outcell: Cell vector modules (Ang)   :    5.466771    5.466771    5.466771
outcell: Cell angles (23,13,12) (deg):     89.8669     89.8669     89.8669
outcell: Cell volume (Ang**3)        :    163.3764
New_DM. Step:     3
Re-using DM from previous geometry...
Re-using DM without extrapolation (not allowed)

siesta: E_KS(eV) =             -861.9523

siesta: Atomic forces (eV/Ang):
----------------------------------------
   Tot   -0.008983   -0.008979   -0.009002
----------------------------------------
   Max    0.168485
   Res    0.132926    sqrt( Sum f_i^2 / 3N )
----------------------------------------
   Max    0.168485    constrained

Stress-tensor-Voigt (kbar):       11.33       11.33       11.33        5.65        5.65        5.65
(Free)E + p*V (eV/cell)     -863.1062
Target enthalpy (eV/cell)     -861.9523

siesta: Stress tensor (static) (eV/Ang**3):
         0.007070    0.003525    0.003525
         0.003525    0.007070    0.003525
         0.003525    0.003525    0.007070

siesta: Pressure (static):        -11.32763672  kBar

siesta: Stress tensor (total) (eV/Ang**3):
         0.007070    0.003525    0.003525
         0.003525    0.007070    0.003525
         0.003525    0.003525    0.007070

siesta: Pressure (total):        -11.32763672  kBar

mulliken: Mulliken Atomic and Orbital Populations:

Species: Si                  
Atom  Qatom  Qorb
               3s      3s      3py     3pz     3px     3py     3pz     3px     
               3Pdxy   3Pdyz   3Pdz2   3Pdxz   3Pdx2-y2
   1  4.000   0.649   0.565   0.231   0.231   0.231   0.526   0.526   0.526
              0.122   0.122   0.074   0.122   0.074
   2  4.000   0.645   0.567   0.230   0.230   0.230   0.527   0.527   0.527
              0.123   0.123   0.074   0.123   0.074
   3  4.000   0.645   0.567   0.230   0.228   0.230   0.527   0.528   0.527
              0.123   0.123   0.074   0.123   0.074
   4  4.000   0.647   0.566   0.231   0.232   0.231   0.526   0.526   0.526
              0.123   0.123   0.074   0.123   0.074
   5  4.000   0.645   0.567   0.228   0.230   0.230   0.528   0.527   0.527
              0.123   0.123   0.074   0.123   0.074
   6  4.000   0.647   0.566   0.232   0.231   0.231   0.526   0.526   0.526
              0.123   0.123   0.074   0.123   0.074
   7  4.000   0.645   0.567   0.230   0.230   0.228   0.527   0.527   0.528
              0.123   0.123   0.074   0.123   0.074
   8  4.000   0.647   0.566   0.231   0.231   0.232   0.526   0.526   0.526
              0.123   0.123   0.074   0.123   0.074

mulliken: Qtot =       32.000

* Maximum dynamic memory allocated =    85 MB

siesta:                 ==============================
                            Begin CG move =      2
                        ==============================

outcoor: Atomic coordinates (Ang):                          
   -0.02411929   -0.02411930   -0.02411915   1       1  Si
    1.35226760    1.35226747    1.35226734   1       2  Si
    2.70925627    2.70925629   -0.01859102   1       3  Si
    4.08547574    4.08547560    1.36012077   1       4  Si
    2.70925629   -0.01859211    2.70925623   1       5  Si
    4.08547569    1.36012081    4.08547524   1       6  Si
   -0.01859224    2.70925654    2.70925639   1       7  Si
    1.36012081    4.08547573    4.08547522   1       8  Si
 Kpoints in:          108 . Kpoints trimmed:          108

siesta: k-grid: Number of k-points =   108
siesta: k-grid: Cutoff (effective) =    16.400 Ang
siesta: k-grid: Supercell and displacements
siesta: k-grid:    0   0   6      0.500
siesta: k-grid:    6   0   0      0.500
siesta: k-grid:    0   6   0      0.500
Naive supercell factors:     5    5    5

superc: Internal auxiliary supercell:     5 x     5 x     5  =     125
superc: Number of atoms, orbitals, and projectors:   1000  13000  16000

outcell: Unit cell vectors (Ang):
        5.466764    0.006347    0.006347
        0.006347    5.466764    0.006347
        0.006347    0.006347    5.466764

outcell: Cell vector modules (Ang)   :    5.466771    5.466771    5.466771
outcell: Cell angles (23,13,12) (deg):     89.8669     89.8669     89.8669
outcell: Cell volume (Ang**3)        :    163.3764
New_DM. Step:     3
Re-using DM from previous geometry...
Re-using DM without extrapolation (not allowed)

InitMesh: MESH =    36 x    36 x    36 =       46656
InitMesh: Mesh cutoff (required, used) =   100.000   119.853 Ry

InitMesh: MESH =    36 x    36 x    36 =       46656
InitMesh: Mesh cutoff (required, used) =   100.000   119.853 Ry

siesta: iscf   Eharris(eV)      E_KS(eV)   FreeEng(eV)   dDmax  Ef(eV)
siesta:    1     -861.9564     -861.9232     -861.9232  0.0012 -5.2960

siesta: iscf   Eharris(eV)      E_KS(eV)   FreeEng(eV)   dDmax  Ef(eV)
siesta:    1     -861.9564     -861.9232     -861.9232  0.0012 -5.2960
siesta:    2     -861.9566     -861.9561     -861.9561  0.0022 -5.2972
siesta:    2     -861.9566     -861.9561     -861.9561  0.0022 -5.2972
siesta:    3     -861.9563     -861.9471     -861.9471  0.0005 -5.2964
siesta:    3     -861.9563     -861.9471     -861.9471  0.0005 -5.2964

siesta: E_KS(eV) =             -861.9563

siesta: Atomic forces (eV/Ang):
----------------------------------------
   Tot   -0.005082   -0.005086   -0.005104
----------------------------------------
   Max    0.162876
   Res    0.118703    sqrt( Sum f_i^2 / 3N )
----------------------------------------
   Max    0.162876    constrained

Stress-tensor-Voigt (kbar):       12.09       12.09       12.09        4.94        4.94        4.94
(Free)E + p*V (eV/cell)     -863.1893
Target enthalpy (eV/cell)     -861.9563

siesta: Stress tensor (static) (eV/Ang**3):
         0.007547    0.003082    0.003082
         0.003082    0.007547    0.003082
         0.003082    0.003082    0.007547

siesta: Pressure (static):        -12.09204698  kBar

siesta: Stress tensor (total) (eV/Ang**3):
         0.007547    0.003082    0.003082
         0.003082    0.007547    0.003082
         0.003082    0.003082    0.007547

siesta: Pressure (total):        -12.09204698  kBar

mulliken: Mulliken Atomic and Orbital Populations:

Species: Si                  
Atom  Qatom  Qorb
               3s      3s      3py     3pz     3px     3py     3pz     3px     
               3Pdxy   3Pdyz   3Pdz2   3Pdxz   3Pdx2-y2
   1  3.999   0.652   0.563   0.233   0.233   0.233   0.524   0.524   0.524
              0.122   0.122   0.073   0.122   0.073
   2  4.000   0.644   0.567   0.230   0.230   0.230   0.527   0.527   0.527
              0.123   0.123   0.074   0.123   0.074
   3  4.000   0.646   0.566   0.231   0.228   0.231   0.526   0.528   0.526
              0.123   0.123   0.074   0.123   0.074
   4  4.000   0.649   0.565   0.232   0.234   0.232   0.525   0.524   0.525
              0.123   0.122   0.074   0.122   0.074
   5  4.000   0.646   0.566   0.228   0.231   0.231   0.528   0.526   0.526
              0.123   0.123   0.074   0.123   0.074
   6  4.000   0.649   0.565   0.234   0.232   0.232   0.524   0.525   0.525
              0.122   0.122   0.074   0.123   0.074
   7  4.000   0.646   0.566   0.231   0.231   0.228   0.526   0.526   0.528
              0.123   0.123   0.074   0.123   0.074
   8  4.000   0.649   0.565   0.232   0.232   0.234   0.525   0.525   0.524
              0.122   0.123   0.074   0.122   0.074

mulliken: Qtot =       32.000

cgvc: Finished line minimization    1.  Mean atomic displacement =    0.0668

* Maximum dynamic memory allocated =    85 MB

siesta:                 ==============================
                            Begin CG move =      3
                        ==============================

outcoor: Atomic coordinates (Ang):                          
   -0.02337188   -0.02337204   -0.02337408   1       1  Si
    1.31722816    1.31722838    1.31723037   1       2  Si
    2.69833423    2.69833428   -0.02659579   1       3  Si
    4.03865678    4.03865675    1.31122764   1       4  Si
    2.69833297   -0.02659301    2.69833145   1       5  Si
    4.03865650    1.31122880    4.03865796   1       6  Si
   -0.02659294    2.69833278    2.69833128   1       7  Si
    1.31122900    4.03865645    4.03865796   1       8  Si
 Kpoints in:          108 . Kpoints trimmed:          108

siesta: k-grid: Number of k-points =   108
siesta: k-grid: Cutoff (effective) =    16.260 Ang
siesta: k-grid: Supercell and displacements
siesta: k-grid:    6   0   0      0.500
siesta: k-grid:    0   6   0      0.500
siesta: k-grid:    0   0   6      0.500
Naive supercell factors:     5    5    5

superc: Internal auxiliary supercell:     5 x     5 x     5  =     125
superc: Number of atoms, orbitals, and projectors:   1000  13000  16000

outcell: Unit cell vectors (Ang):
        5.420076   -0.005034   -0.005035
       -0.005034    5.420076   -0.005035
       -0.005035   -0.005035    5.420076

outcell: Cell vector modules (Ang)   :    5.420081    5.420081    5.420081
outcell: Cell angles (23,13,12) (deg):     90.1064     90.1064     90.1064
outcell: Cell volume (Ang**3)        :    159.2264
New_DM. Step:     4
Re-using DM from previous geometry...
Re-using DM without extrapolation (not allowed)
Density Matrix sparsity pattern changed.

siesta: E_KS(eV) =             -861.9563

siesta: Atomic forces (eV/Ang):
----------------------------------------
   Tot   -0.005082   -0.005086   -0.005104
----------------------------------------
   Max    0.162876
   Res    0.118703    sqrt( Sum f_i^2 / 3N )
----------------------------------------
   Max    0.162876    constrained

Stress-tensor-Voigt (kbar):       12.09       12.09       12.09        4.94        4.94        4.94
(Free)E + p*V (eV/cell)     -863.1893
Target enthalpy (eV/cell)     -861.9563

siesta: Stress tensor (static) (eV/Ang**3):
         0.007547    0.003082    0.003082
         0.003082    0.007547    0.003082
         0.003082    0.003082    0.007547

siesta: Pressure (static):        -12.09204698  kBar

siesta: Stress tensor (total) (eV/Ang**3):
         0.007547    0.003082    0.003082
         0.003082    0.007547    0.003082
         0.003082    0.003082    0.007547

siesta: Pressure (total):        -12.09204698  kBar

mulliken: Mulliken Atomic and Orbital Populations:

Species: Si                  
Atom  Qatom  Qorb
               3s      3s      3py     3pz     3px     3py     3pz     3px     
               3Pdxy   3Pdyz   3Pdz2   3Pdxz   3Pdx2-y2
   1  3.999   0.652   0.563   0.233   0.233   0.233   0.524   0.524   0.524
              0.122   0.122   0.073   0.122   0.073
   2  4.000   0.644   0.567   0.230   0.230   0.230   0.527   0.527   0.527
              0.123   0.123   0.074   0.123   0.074
   3  4.000   0.646   0.566   0.231   0.228   0.231   0.526   0.528   0.526
              0.123   0.123   0.074   0.123   0.074
   4  4.000   0.649   0.565   0.232   0.234   0.232   0.525   0.524   0.525
              0.123   0.122   0.074   0.122   0.074
   5  4.000   0.646   0.566   0.228   0.231   0.231   0.528   0.526   0.526
              0.123   0.123   0.074   0.123   0.074
   6  4.000   0.649   0.565   0.234   0.232   0.232   0.524   0.525   0.525
              0.122   0.122   0.074   0.123   0.074
   7  4.000   0.646   0.566   0.231   0.231   0.228   0.526   0.526   0.528
              0.123   0.123   0.074   0.123   0.074
   8  4.000   0.649   0.565   0.232   0.232   0.234   0.525   0.525   0.524
              0.122   0.123   0.074   0.122   0.074

mulliken: Qtot =       32.000

cgvc: Finished line minimization    1.  Mean atomic displacement =    0.0668

* Maximum dynamic memory allocated =    85 MB

siesta:                 ==============================
                            Begin CG move =      3
                        ==============================

outcoor: Atomic coordinates (Ang):                          
   -0.02337188   -0.02337204   -0.02337408   1       1  Si
    1.31722816    1.31722838    1.31723037   1       2  Si
    2.69833423    2.69833428   -0.02659579   1       3  Si
    4.03865678    4.03865675    1.31122764   1       4  Si
    2.69833297   -0.02659301    2.69833145   1       5  Si
    4.03865650    1.31122880    4.03865796   1       6  Si
   -0.02659294    2.69833278    2.69833128   1       7  Si
    1.31122900    4.03865645    4.03865796   1       8  Si
 Kpoints in:          108 . Kpoints trimmed:          108

siesta: k-grid: Number of k-points =   108
siesta: k-grid: Cutoff (effective) =    16.260 Ang
siesta: k-grid: Supercell and displacements
siesta: k-grid:    6   0   0      0.500
siesta: k-grid:    0   6   0      0.500
siesta: k-grid:    0   0   6      0.500
Naive supercell factors:     5    5    5

superc: Internal auxiliary supercell:     5 x     5 x     5  =     125
superc: Number of atoms, orbitals, and projectors:   1000  13000  16000

outcell: Unit cell vectors (Ang):
        5.420076   -0.005034   -0.005035
       -0.005034    5.420076   -0.005035
       -0.005035   -0.005035    5.420076

outcell: Cell vector modules (Ang)   :    5.420081    5.420081    5.420081
outcell: Cell angles (23,13,12) (deg):     90.1064     90.1064     90.1064
outcell: Cell volume (Ang**3)        :    159.2264
New_DM. Step:     4
Re-using DM from previous geometry...
Re-using DM without extrapolation (not allowed)
Density Matrix sparsity pattern changed.

InitMesh: MESH =    36 x    36 x    36 =       46656
InitMesh: Mesh cutoff (required, used) =   100.000   121.927 Ry

InitMesh: MESH =    36 x    36 x    36 =       46656
InitMesh: Mesh cutoff (required, used) =   100.000   121.927 Ry

siesta: iscf   Eharris(eV)      E_KS(eV)   FreeEng(eV)   dDmax  Ef(eV)
siesta:    1     -861.9472     -862.6492     -862.6492  0.0230 -5.3572

siesta: iscf   Eharris(eV)      E_KS(eV)   FreeEng(eV)   dDmax  Ef(eV)
siesta:    1     -861.9472     -862.6492     -862.6492  0.0230 -5.3572
siesta:    2     -861.9765     -861.9168     -861.9168  0.0222 -5.3538
siesta:    2     -861.9765     -861.9168     -861.9168  0.0222 -5.3538
siesta:    3     -861.9368     -862.0255     -862.0255  0.0047 -5.3508
siesta:    3     -861.9368     -862.0255     -862.0255  0.0047 -5.3508
siesta:    4     -861.9366     -861.9302     -861.9302  0.0011 -5.3498
siesta:    4     -861.9366     -861.9302     -861.9302  0.0011 -5.3498
siesta:    5     -861.9366     -861.9304     -861.9304  0.0008 -5.3500
siesta:    5     -861.9366     -861.9304     -861.9304  0.0008 -5.3500

siesta: E_KS(eV) =             -861.9356

siesta: Atomic forces (eV/Ang):
----------------------------------------
   Tot    0.009252    0.009262    0.009281
----------------------------------------
   Max    0.355899
   Res    0.242249    sqrt( Sum f_i^2 / 3N )
----------------------------------------
   Max    0.355899    constrained

Stress-tensor-Voigt (kbar):      -11.94      -11.94      -11.94       -8.09       -8.09       -8.09
(Free)E + p*V (eV/cell)     -860.7487
Target enthalpy (eV/cell)     -861.9356

siesta: Stress tensor (static) (eV/Ang**3):
        -0.007454   -0.005051   -0.005052
        -0.005051   -0.007454   -0.005052
        -0.005052   -0.005052   -0.007454

siesta: Pressure (static):         11.94291013  kBar

siesta: Stress tensor (total) (eV/Ang**3):
        -0.007454   -0.005051   -0.005052
        -0.005051   -0.007454   -0.005052
        -0.005052   -0.005052   -0.007454

siesta: Pressure (total):         11.94291013  kBar

mulliken: Mulliken Atomic and Orbital Populations:

Species: Si                  
Atom  Qatom  Qorb
               3s      3s      3py     3pz     3px     3py     3pz     3px     
               3Pdxy   3Pdyz   3Pdz2   3Pdxz   3Pdx2-y2
   1  4.002   0.612   0.583   0.200   0.200   0.200   0.554   0.554   0.554
              0.129   0.129   0.079   0.129   0.079
   2  3.998   0.644   0.567   0.216   0.216   0.216   0.538   0.538   0.538
              0.125   0.125   0.075   0.125   0.075
   3  3.999   0.634   0.572   0.208   0.218   0.208   0.545   0.538   0.545
              0.127   0.126   0.076   0.126   0.077
   4  4.001   0.624   0.577   0.210   0.200   0.210   0.545   0.551   0.545
              0.127   0.128   0.079   0.128   0.077
   5  3.999   0.634   0.572   0.218   0.208   0.208   0.538   0.545   0.545
              0.126   0.126   0.077   0.127   0.076
   6  4.001   0.624   0.577   0.200   0.210   0.210   0.551   0.545   0.545
              0.128   0.128   0.077   0.127   0.078
   7  3.999   0.634   0.572   0.208   0.208   0.218   0.545   0.545   0.538
              0.126   0.127   0.077   0.126   0.076
   8  4.001   0.624   0.577   0.210   0.210   0.200   0.545   0.545   0.551
              0.128   0.127   0.077   0.128   0.078

mulliken: Qtot =       32.000

* Maximum dynamic memory allocated =    85 MB

siesta:                 ==============================
                            Begin CG move =      4
                        ==============================

outcoor: Atomic coordinates (Ang):                          
   -0.02383178   -0.02383185   -0.02383253   1       1  Si
    1.33879721    1.33879722    1.33879791   1       2  Si
    2.70512095    2.70512098   -0.02163200   1       3  Si
    4.06753758    4.06753748    1.34135815   1       4  Si
    2.70512048   -0.02163160    2.70511985   1       5  Si
    4.06753743    1.34135862    4.06753772   1       6  Si
   -0.02163165    2.70512056    2.70511989   1       7  Si
    1.34135869    4.06753744    4.06753771   1       8  Si
 Kpoints in:          108 . Kpoints trimmed:          108

siesta: k-grid: Number of k-points =   108
siesta: k-grid: Cutoff (effective) =    16.347 Ang
siesta: k-grid: Supercell and displacements
siesta: k-grid:    6   0   0      0.500
siesta: k-grid:    0   6   0      0.500
siesta: k-grid:    0   0   6      0.500
Naive supercell factors:     5    5    5

superc: Internal auxiliary supercell:     5 x     5 x     5  =     125
superc: Number of atoms, orbitals, and projectors:   1000  13000  16000

outcell: Unit cell vectors (Ang):
        5.448888    0.001989    0.001989
        0.001989    5.448888    0.001989
        0.001989    0.001989    5.448888

outcell: Cell vector modules (Ang)   :    5.448889    5.448889    5.448889
outcell: Cell angles (23,13,12) (deg):     89.9582     89.9582     89.9582
outcell: Cell volume (Ang**3)        :    161.7795

siesta: E_KS(eV) =             -861.9356

siesta: Atomic forces (eV/Ang):
----------------------------------------
   Tot    0.009252    0.009262    0.009281
----------------------------------------
   Max    0.355899
   Res    0.242249    sqrt( Sum f_i^2 / 3N )
----------------------------------------
   Max    0.355899    constrained

Stress-tensor-Voigt (kbar):      -11.94      -11.94      -11.94       -8.09       -8.09       -8.09
(Free)E + p*V (eV/cell)     -860.7487
Target enthalpy (eV/cell)     -861.9356

siesta: Stress tensor (static) (eV/Ang**3):
        -0.007454   -0.005051   -0.005052
        -0.005051   -0.007454   -0.005052
        -0.005052   -0.005052   -0.007454

siesta: Pressure (static):         11.94291013  kBar

siesta: Stress tensor (total) (eV/Ang**3):
        -0.007454   -0.005051   -0.005052
        -0.005051   -0.007454   -0.005052
        -0.005052   -0.005052   -0.007454

siesta: Pressure (total):         11.94291013  kBar

mulliken: Mulliken Atomic and Orbital Populations:

Species: Si                  
Atom  Qatom  Qorb
               3s      3s      3py     3pz     3px     3py     3pz     3px     
               3Pdxy   3Pdyz   3Pdz2   3Pdxz   3Pdx2-y2
   1  4.002   0.612   0.583   0.200   0.200   0.200   0.554   0.554   0.554
              0.129   0.129   0.079   0.129   0.079
   2  3.998   0.644   0.567   0.216   0.216   0.216   0.538   0.538   0.538
              0.125   0.125   0.075   0.125   0.075
   3  3.999   0.634   0.572   0.208   0.218   0.208   0.545   0.538   0.545
              0.127   0.126   0.076   0.126   0.077
   4  4.001   0.624   0.577   0.210   0.200   0.210   0.545   0.551   0.545
              0.127   0.128   0.079   0.128   0.077
   5  3.999   0.634   0.572   0.218   0.208   0.208   0.538   0.545   0.545
              0.126   0.126   0.077   0.127   0.076
   6  4.001   0.624   0.577   0.200   0.210   0.210   0.551   0.545   0.545
              0.128   0.128   0.077   0.127   0.078
   7  3.999   0.634   0.572   0.208   0.208   0.218   0.545   0.545   0.538
              0.126   0.127   0.077   0.126   0.076
   8  4.001   0.624   0.577   0.210   0.210   0.200   0.545   0.545   0.551
              0.128   0.127   0.077   0.128   0.078

mulliken: Qtot =       32.000

* Maximum dynamic memory allocated =    85 MB

siesta:                 ==============================
                            Begin CG move =      4
                        ==============================

outcoor: Atomic coordinates (Ang):                          
   -0.02383178   -0.02383185   -0.02383253   1       1  Si
    1.33879721    1.33879722    1.33879791   1       2  Si
    2.70512095    2.70512098   -0.02163200   1       3  Si
    4.06753758    4.06753748    1.34135815   1       4  Si
    2.70512048   -0.02163160    2.70511985   1       5  Si
    4.06753743    1.34135862    4.06753772   1       6  Si
   -0.02163165    2.70512056    2.70511989   1       7  Si
    1.34135869    4.06753744    4.06753771   1       8  Si
 Kpoints in:          108 . Kpoints trimmed:          108

siesta: k-grid: Number of k-points =   108
siesta: k-grid: Cutoff (effective) =    16.347 Ang
siesta: k-grid: Supercell and displacements
siesta: k-grid:    6   0   0      0.500
siesta: k-grid:    0   6   0      0.500
siesta: k-grid:    0   0   6      0.500
New_DM. Step:     5
Re-using DM from previous geometry...
Naive supercell factors:     5    5    5

superc: Internal auxiliary supercell:     5 x     5 x     5  =     125
superc: Number of atoms, orbitals, and projectors:   1000  13000  16000

outcell: Unit cell vectors (Ang):
        5.448888    0.001989    0.001989
        0.001989    5.448888    0.001989
        0.001989    0.001989    5.448888

outcell: Cell vector modules (Ang)   :    5.448889    5.448889    5.448889
outcell: Cell angles (23,13,12) (deg):     89.9582     89.9582     89.9582
outcell: Cell volume (Ang**3)        :    161.7795
Re-using DM without extrapolation (not allowed)
Density Matrix sparsity pattern changed.
New_DM. Step:     5
Re-using DM from previous geometry...
Re-using DM without extrapolation (not allowed)
Density Matrix sparsity pattern changed.

InitMesh: MESH =    36 x    36 x    36 =       46656
InitMesh: Mesh cutoff (required, used) =   100.000   120.640 Ry

InitMesh: MESH =    36 x    36 x    36 =       46656
InitMesh: Mesh cutoff (required, used) =   100.000   120.640 Ry

siesta: iscf   Eharris(eV)      E_KS(eV)   FreeEng(eV)   dDmax  Ef(eV)
siesta:    1     -861.9751     -861.5101     -861.5101  0.0147 -5.3259

siesta: iscf   Eharris(eV)      E_KS(eV)   FreeEng(eV)   dDmax  Ef(eV)
siesta:    1     -861.9751     -861.5101     -861.5101  0.0147 -5.3259
siesta:    2     -861.9868     -861.9629     -861.9629  0.0146 -5.3310
siesta:    2     -861.9868     -861.9629     -861.9629  0.0146 -5.3310
siesta:    3     -861.9709     -861.9056     -861.9056  0.0030 -5.3295
siesta:    3     -861.9709     -861.9056     -861.9056  0.0030 -5.3295
siesta:    4     -861.9709     -861.9674     -861.9674  0.0007 -5.3300
siesta:    4     -861.9709     -861.9674     -861.9674  0.0007 -5.3300

siesta: E_KS(eV) =             -861.9696

siesta: Atomic forces (eV/Ang):
----------------------------------------
   Tot   -0.007111   -0.007111   -0.007103
----------------------------------------
   Max    0.036210
   Res    0.028761    sqrt( Sum f_i^2 / 3N )
----------------------------------------
   Max    0.036210    constrained

Stress-tensor-Voigt (kbar):        3.08        3.08        3.08        0.55        0.55        0.55
(Free)E + p*V (eV/cell)     -862.2803
Target enthalpy (eV/cell)     -861.9696

siesta: Stress tensor (static) (eV/Ang**3):
         0.001920    0.000341    0.000341
         0.000341    0.001920    0.000341
         0.000341    0.000341    0.001920

siesta: Pressure (static):         -3.07690415  kBar

siesta: Stress tensor (total) (eV/Ang**3):
         0.001920    0.000341    0.000341
         0.000341    0.001920    0.000341
         0.000341    0.000341    0.001920

siesta: Pressure (total):         -3.07690415  kBar

mulliken: Mulliken Atomic and Orbital Populations:

Species: Si                  
Atom  Qatom  Qorb
               3s      3s      3py     3pz     3px     3py     3pz     3px     
               3Pdxy   3Pdyz   3Pdz2   3Pdxz   3Pdx2-y2
   1  4.001   0.637   0.570   0.222   0.222   0.222   0.535   0.535   0.535
              0.125   0.125   0.076   0.125   0.076
   2  4.000   0.645   0.566   0.225   0.225   0.225   0.531   0.531   0.531
              0.124   0.124   0.075   0.124   0.075
   3  4.000   0.642   0.568   0.223   0.225   0.223   0.533   0.532   0.533
              0.124   0.124   0.075   0.124   0.075
   4  4.000   0.640   0.569   0.223   0.221   0.223   0.533   0.535   0.533
              0.124   0.124   0.075   0.124   0.075
   5  4.000   0.642   0.568   0.225   0.223   0.223   0.532   0.533   0.533
              0.124   0.124   0.075   0.124   0.075
   6  4.000   0.640   0.569   0.221   0.223   0.223   0.535   0.533   0.533
              0.124   0.124   0.075   0.124   0.075
   7  4.000   0.642   0.568   0.223   0.223   0.225   0.533   0.533   0.532
              0.124   0.124   0.075   0.124   0.075
   8  4.000   0.640   0.569   0.223   0.223   0.221   0.533   0.533   0.535
              0.124   0.124   0.075   0.124   0.075

mulliken: Qtot =       32.000

* Maximum dynamic memory allocated =    85 MB

outcoor: Relaxed atomic coordinates (Ang):                  
   -0.02383178   -0.02383185   -0.02383253   1       1  Si
    1.33879721    1.33879722    1.33879791   1       2  Si
    2.70512095    2.70512098   -0.02163200   1       3  Si
    4.06753758    4.06753748    1.34135815   1       4  Si
    2.70512048   -0.02163160    2.70511985   1       5  Si
    4.06753743    1.34135862    4.06753772   1       6  Si
   -0.02163165    2.70512056    2.70511989   1       7  Si
    1.34135869    4.06753744    4.06753771   1       8  Si

outcell: Unit cell vectors (Ang):
        5.448888    0.001989    0.001989
        0.001989    5.448888    0.001989
        0.001989    0.001989    5.448888

outcell: Cell vector modules (Ang)   :    5.448889    5.448889    5.448889
outcell: Cell angles (23,13,12) (deg):     89.9582     89.9582     89.9582
outcell: Cell volume (Ang**3)        :    161.7795

coxmol: Writing XMOL coordinates into file si.xyz                                                          
Writing WFSX for selected k-points in si.selected.WFSX

writewave: Wave Functions Coefficients

     Number of k-points =        1
        Number of Spins =        1
   Number of basis orbs =      104


                                                                  ******
            k-point =        1    0.000000  0.000000  0.000000
     Spin component =        1
 Num. wavefunctions =       50
Use readwfsx utility to print wavefunction coefficients from WFSX file
Computing bands...

siesta: E_KS(eV) =             -861.9696

siesta: Atomic forces (eV/Ang):
----------------------------------------
   Tot   -0.007111   -0.007111   -0.007103
----------------------------------------
   Max    0.036210
   Res    0.028761    sqrt( Sum f_i^2 / 3N )
----------------------------------------
   Max    0.036210    constrained

Stress-tensor-Voigt (kbar):        3.08        3.08        3.08        0.55        0.55        0.55
(Free)E + p*V (eV/cell)     -862.2803
Target enthalpy (eV/cell)     -861.9696

siesta: Stress tensor (static) (eV/Ang**3):
         0.001920    0.000341    0.000341
         0.000341    0.001920    0.000341
         0.000341    0.000341    0.001920

siesta: Pressure (static):         -3.07690415  kBar

siesta: Stress tensor (total) (eV/Ang**3):
         0.001920    0.000341    0.000341
         0.000341    0.001920    0.000341
         0.000341    0.000341    0.001920

siesta: Pressure (total):         -3.07690415  kBar

mulliken: Mulliken Atomic and Orbital Populations:

Species: Si                  
Atom  Qatom  Qorb
               3s      3s      3py     3pz     3px     3py     3pz     3px     
               3Pdxy   3Pdyz   3Pdz2   3Pdxz   3Pdx2-y2
   1  4.001   0.637   0.570   0.222   0.222   0.222   0.535   0.535   0.535
              0.125   0.125   0.076   0.125   0.076
   2  4.000   0.645   0.566   0.225   0.225   0.225   0.531   0.531   0.531
              0.124   0.124   0.075   0.124   0.075
   3  4.000   0.642   0.568   0.223   0.225   0.223   0.533   0.532   0.533
              0.124   0.124   0.075   0.124   0.075
   4  4.000   0.640   0.569   0.223   0.221   0.223   0.533   0.535   0.533
              0.124   0.124   0.075   0.124   0.075
   5  4.000   0.642   0.568   0.225   0.223   0.223   0.532   0.533   0.533
              0.124   0.124   0.075   0.124   0.075
   6  4.000   0.640   0.569   0.221   0.223   0.223   0.535   0.533   0.533
              0.124   0.124   0.075   0.124   0.075
   7  4.000   0.642   0.568   0.223   0.223   0.225   0.533   0.533   0.532
              0.124   0.124   0.075   0.124   0.075
   8  4.000   0.640   0.569   0.223   0.223   0.221   0.533   0.533   0.535
              0.124   0.124   0.075   0.124   0.075

mulliken: Qtot =       32.000

* Maximum dynamic memory allocated =    85 MB

outcoor: Relaxed atomic coordinates (Ang):                  
   -0.02383178   -0.02383185   -0.02383253   1       1  Si
    1.33879721    1.33879722    1.33879791   1       2  Si
    2.70512095    2.70512098   -0.02163200   1       3  Si
    4.06753758    4.06753748    1.34135815   1       4  Si
    2.70512048   -0.02163160    2.70511985   1       5  Si
    4.06753743    1.34135862    4.06753772   1       6  Si
   -0.02163165    2.70512056    2.70511989   1       7  Si
    1.34135869    4.06753744    4.06753771   1       8  Si

outcell: Unit cell vectors (Ang):
        5.448888    0.001989    0.001989
        0.001989    5.448888    0.001989
        0.001989    0.001989    5.448888

outcell: Cell vector modules (Ang)   :    5.448889    5.448889    5.448889
outcell: Cell angles (23,13,12) (deg):     89.9582     89.9582     89.9582
outcell: Cell volume (Ang**3)        :    161.7795

coxmol: Writing XMOL coordinates into file siesta.xyz                                                      
Writing WFSX for selected k-points in siesta.selected.WFSX

writewave: Wave Functions Coefficients

     Number of k-points =        1
        Number of Spins =        1
   Number of basis orbs =      104


                                                                  ******
            k-point =        1    0.000000  0.000000  0.000000
     Spin component =        1
 Num. wavefunctions =       50
Use readwfsx utility to print wavefunction coefficients from WFSX file
Computing bands...

siesta: Band k vectors (Bohr**-1):
  ik           k
   1    0.302265    0.302265    0.302265
   2    0.290175    0.290175    0.290175
   3    0.278084    0.278084    0.278084
   4    0.265993    0.265993    0.265993
   5    0.253903    0.253903    0.253903
   6    0.241812    0.241812    0.241812
   7    0.229722    0.229722    0.229722
   8    0.217631    0.217631    0.217631
   9    0.205540    0.205540    0.205540
  10    0.193450    0.193450    0.193450
  11    0.181359    0.181359    0.181359
  12    0.169269    0.169269    0.169269
  13    0.157178    0.157178    0.157178
  14    0.145087    0.145087    0.145087
  15    0.132997    0.132997    0.132997
  16    0.120906    0.120906    0.120906
  17    0.108815    0.108815    0.108815
  18    0.096725    0.096725    0.096725
  19    0.084634    0.084634    0.084634
  20    0.072544    0.072544    0.072544
  21    0.060453    0.060453    0.060453
  22    0.048362    0.048362    0.048362
  23    0.036272    0.036272    0.036272
  24    0.024181    0.024181    0.024181
  25    0.012091    0.012091    0.012091
  26    0.000000    0.000000    0.000000
  27    0.020151    0.000000    0.000000
  28    0.040302    0.000000    0.000000
  29    0.060453    0.000000    0.000000
  30    0.080604    0.000000    0.000000
  31    0.100755    0.000000    0.000000
  32    0.120906    0.000000    0.000000
  33    0.141057    0.000000    0.000000
  34    0.161208    0.000000    0.000000
  35    0.181359    0.000000    0.000000
  36    0.201510    0.000000    0.000000
  37    0.221661    0.000000    0.000000
  38    0.241812    0.000000    0.000000
  39    0.261963    0.000000    0.000000
  40    0.282114    0.000000    0.000000
  41    0.302265    0.000000    0.000000
  42    0.322416    0.000000    0.000000
  43    0.342567    0.000000    0.000000
  44    0.362718    0.000000    0.000000
  45    0.382869    0.000000    0.000000
  46    0.403020    0.000000    0.000000
  47    0.423171    0.000000    0.000000
  48    0.443322    0.000000    0.000000
  49    0.463473    0.000000    0.000000
  50    0.483624    0.000000    0.000000
  51    0.503775    0.000000    0.000000
  52    0.523926    0.000000    0.000000
  53    0.544077    0.000000    0.000000
  54    0.564228    0.000000    0.000000
  55    0.584379    0.000000    0.000000
  56    0.604530    0.000000    0.000000
  57    0.604530    0.015113    0.015113
  58    0.604530    0.030227    0.030227
  59    0.604530    0.045340    0.045340
  60    0.604530    0.060453    0.060453
  61    0.604530    0.075566    0.075566
  62    0.604530    0.090680    0.090680
  63    0.604530    0.105793    0.105793
  64    0.604530    0.120906    0.120906
  65    0.604530    0.136019    0.136019
  66    0.604530    0.151133    0.151133
  67    0.587258    0.146815    0.146815
  68    0.569986    0.142496    0.142496
  69    0.552714    0.138178    0.138178
  70    0.535441    0.133860    0.133860
  71    0.518169    0.129542    0.129542
  72    0.500897    0.125224    0.125224
  73    0.483624    0.120906    0.120906
  74    0.466352    0.116588    0.116588
  75    0.449080    0.112270    0.112270
  76    0.431807    0.107952    0.107952
  77    0.414535    0.103634    0.103634
  78    0.397263    0.099316    0.099316
  79    0.379991    0.094998    0.094998
  80    0.362718    0.090680    0.090680
  81    0.345446    0.086361    0.086361
  82    0.328174    0.082043    0.082043
  83    0.310901    0.077725    0.077725
  84    0.293629    0.073407    0.073407
  85    0.276357    0.069089    0.069089
  86    0.259084    0.064771    0.064771
  87    0.241812    0.060453    0.060453
  88    0.224540    0.056135    0.056135
  89    0.207268    0.051817    0.051817
  90    0.189995    0.047499    0.047499
  91    0.172723    0.043181    0.043181
  92    0.155451    0.038863    0.038863
  93    0.138178    0.034545    0.034545
  94    0.120906    0.030227    0.030227
  95    0.103634    0.025908    0.025908
  96    0.086361    0.021590    0.021590
  97    0.069089    0.017272    0.017272
  98    0.051817    0.012954    0.012954
  99    0.034545    0.008636    0.008636
 100    0.017272    0.004318    0.004318
 101    0.000000    0.000000    0.000000

siesta: Band energies (eV):
  ik is    eps
   1  1 -15.30 -15.28 -15.28 -15.27 -12.66 -12.65 -12.65 -12.64  -6.90  -6.90
         -6.89  -6.89  -6.89  -6.88  -6.86  -6.86  -4.23  -4.22  -4.22  -4.21
         -2.22  -2.22  -2.21  -2.21  -2.21  -2.21  -2.19  -2.19   3.13   3.16
          3.16   3.19   5.41   5.41   5.41   5.43   5.43   5.46   5.46   5.46
          5.69   5.73   5.73   5.73   5.96   5.96   5.97   5.98   5.98   5.98
          6.00   6.00   8.24   8.25   8.25   8.25  16.45  16.48  16.48  16.48
         17.51  17.51  17.52  17.52  17.52  17.55  17.55  17.55  19.38  19.38
         19.40  19.40  19.40  19.40  19.43  19.43  20.72  20.77  20.77  20.77
         29.46  29.46  29.47  29.49  29.49  29.50  29.50  29.50  69.70  69.92
         69.92  70.03  73.32  73.32  73.43  73.89  73.89  73.93  74.60  74.60
        115.56 115.60 115.60 116.42
   2  1 -15.32 -15.28 -15.28 -15.27 -12.65 -12.65 -12.65 -12.61  -6.95  -6.95
         -6.95  -6.91  -6.91  -6.90  -6.86  -6.86  -4.21  -4.16  -4.16  -4.16
         -2.23  -2.23  -2.23  -2.20  -2.20  -2.18  -2.18  -2.18   3.12   3.15
          3.15   3.19   4.99   4.99   4.99   5.13   5.13   5.44   5.44   5.44
          5.62   5.84   5.84   5.84   6.01   6.01   6.01   6.30   6.30   6.35
          6.35   6.35   8.27   8.27   8.27   8.30  16.39  16.46  16.46  16.46
         17.41  17.41  17.44  17.44  17.45  17.52  17.52  17.52  19.36  19.36
         19.36  19.40  19.40  19.40  19.49  19.49  20.35  20.35  20.35  20.84
         29.40  29.40  29.40  29.47  29.47  29.47  29.51  29.51  68.57  69.19
         69.19  69.25  70.87  70.87  70.90  72.06  72.09  72.09  74.30  74.30
        112.00 112.00 112.01 114.46
   3  1 -15.39 -15.27 -15.27 -15.27 -12.63 -12.63 -12.63 -12.50  -7.08  -7.08
         -7.08  -6.94  -6.94  -6.93  -6.86  -6.86  -4.20  -4.03  -4.03  -4.03
         -2.26  -2.26  -2.26  -2.19  -2.19  -2.11  -2.11  -2.11   3.08   3.09
          3.09   3.17   4.55   4.55   4.55   4.74   4.74   5.41   5.41   5.41
          5.45   5.91   5.91   5.91   6.07   6.07   6.07   6.74   6.74   6.88
          6.88   6.88   8.32   8.32   8.32   8.43  16.26  16.40  16.40  16.40
         17.16  17.16  17.28  17.28  17.28  17.47  17.47  17.47  19.28  19.28
         19.28  19.34  19.35  19.35  19.59  19.59  19.60  19.65  19.65  21.10
         29.17  29.17  29.17  29.52  29.52  29.52  29.57  29.57  63.67  63.67
         63.68  65.82  68.40  68.44  68.44  70.88  70.88  70.90  73.91  73.91
        104.11 104.11 104.12 110.71
   4  1 -15.49 -15.26 -15.26 -15.26 -12.60 -12.60 -12.60 -12.35  -7.27  -7.27
         -7.26  -6.99  -6.99  -6.99  -6.84  -6.84  -4.18  -3.86  -3.86  -3.86
         -2.29  -2.29  -2.29  -2.18  -2.18  -2.01  -2.01  -2.01   2.95   2.95
[...]
         10.39  10.97  11.03  11.27  11.43  11.72  12.00  12.39  12.96  13.32
         14.05  14.27  14.49  14.57  14.64  15.63  16.11  16.36  16.40  17.11
         17.67  17.78  18.68  18.86  19.40  20.74  21.83  22.22  23.17  23.34
         23.73  23.95  24.72  25.08  26.36  26.51  32.69  37.39  38.77  40.81
         43.77  53.90  54.04  56.85  58.18  63.87  65.83  67.47  67.97  69.08
         73.28  86.42  88.95  90.95
  93  1 -16.55 -15.87 -14.70 -14.35 -12.49 -12.10 -10.67  -9.93  -9.67  -9.61
         -8.55  -8.32  -8.10  -7.85  -7.60  -6.65  -3.52  -3.50  -3.03  -2.40
         -2.17  -1.89  -1.87  -1.07  -1.04  -0.88  -0.65  -0.54   0.43   0.45
          1.11   1.89   1.90   1.94   2.53   3.45   3.91   3.94   4.57   5.55
          5.65   5.66   7.46   7.80   8.18   8.44   8.87   9.23   9.44  10.10
         10.39  10.95  11.02  11.27  11.42  11.73  12.00  12.38  12.96  13.29
         14.05  14.24  14.49  14.57  14.65  15.67  16.14  16.36  16.40  17.11
         17.67  17.79  18.70  18.86  19.42  20.75  21.83  22.20  23.18  23.35
         23.74  23.94  24.70  25.10  26.35  26.53  32.77  37.42  38.79  40.76
         43.90  53.79  53.95  56.75  58.18  63.91  65.83  67.51  68.03  69.10
         73.36  86.45  89.01  90.94
  94  1 -16.34 -15.69 -14.77 -14.77 -12.42 -12.42 -11.37 -10.57  -9.17  -9.17
         -8.13  -7.83  -7.83  -7.51  -6.99  -6.96  -3.64  -3.41  -3.27  -3.27
         -2.31  -1.69  -1.69  -1.50  -1.40  -0.69  -0.54   0.31   0.31   0.45
          0.68   0.68   2.73   2.73   3.20   3.24   4.76   4.89   5.05   5.30
          5.39   5.39   6.42   6.42   7.22   8.10   8.74   9.12   9.12   9.13
          9.29   9.29  11.06  11.38  11.38  11.76  13.03  13.28  13.47  13.47
         13.58  14.70  14.99  14.99  16.17  16.17  16.60  16.69  17.20  17.45
         17.45  17.85  17.85  19.22  19.23  19.25  20.84  22.19  22.34  23.88
         24.50  24.50  25.32  27.30  27.99  27.99  32.57  33.39  36.29  36.29
         41.58  49.38  55.89  55.90  56.99  62.04  64.09  68.88  68.89  69.17
         81.84  86.64  86.65  94.59
  95  1 -15.93 -15.37 -15.37 -15.01 -12.45 -12.05 -12.05 -11.41  -8.69  -8.26
         -8.26  -7.53  -7.27  -7.24  -7.24  -6.67  -3.52  -3.47  -3.09  -3.09
         -2.39  -2.39  -2.02  -1.98  -1.56  -1.18  -1.05  -1.05   1.20   1.20
          2.01   2.20   2.38   3.05   3.43   3.87   3.87   4.25   4.25   4.48
          5.10   6.92   6.93   7.11   7.11   7.63   7.96   8.60   8.78   8.78
          8.90   9.19   9.26  10.05  10.48  10.48  13.81  14.06  14.06  15.05
         15.05  15.11  15.55  15.79  15.84  15.95  16.56  16.56  17.72  18.37
         18.40  18.40  19.03  19.03  19.36  19.85  20.54  20.54  21.22  21.86
         26.89  27.13  27.13  28.83  28.98  32.45  32.45  34.52  39.76  41.38
         41.39  48.08  55.45  55.46  58.01  59.16  64.94  76.85  76.85  81.00
         81.52  81.52  90.17  92.32
  96  1 -15.93 -15.38 -15.37 -15.01 -12.46 -12.06 -12.05 -11.41  -8.69  -8.26
         -8.25  -7.54  -7.28  -7.25  -7.22  -6.67  -3.53  -3.48  -3.09  -3.08
         -2.39  -2.38  -2.03  -1.99  -1.55  -1.18  -1.05  -1.03   1.21   1.23
          2.00   2.20   2.41   3.03   3.42   3.86   3.87   4.23   4.24   4.48
          5.11   6.90   6.93   7.08   7.10   7.63   7.98   8.58   8.77   8.78
          8.90   9.21   9.29  10.06  10.49  10.51  13.82  14.05  14.06  15.03
         15.06  15.12  15.56  15.81  15.86  15.95  16.52  16.55  17.71  18.37
         18.40  18.43  19.00  19.02  19.36  19.83  20.52  20.54  21.21  21.89
         26.86  27.11  27.14  28.82  28.99  32.43  32.44  34.50  39.72  41.33
         41.43  48.04  55.39  55.63  57.89  59.12  64.75  76.72  76.75  81.07
         81.52  81.55  90.25  91.76
  97  1 -15.93 -15.37 -15.37 -15.02 -12.46 -12.05 -12.05 -11.41  -8.68  -8.26
         -8.26  -7.54  -7.27  -7.24  -7.24  -6.67  -3.53  -3.47  -3.10  -3.10
         -2.39  -2.39  -2.02  -1.99  -1.54  -1.17  -1.04  -1.04   1.22   1.22
          2.02   2.21   2.39   3.03   3.42   3.86   3.87   4.23   4.23   4.47
          5.08   6.91   6.91   7.11   7.11   7.64   7.96   8.58   8.76   8.77
          8.89   9.22   9.28  10.07  10.51  10.51  13.83  14.07  14.07  15.06
         15.07  15.10  15.56  15.80  15.83  15.94  16.53  16.53  17.70  18.36
         18.40  18.41  19.03  19.03  19.36  19.83  20.52  20.52  21.21  21.87
         26.90  27.11  27.11  28.80  29.00  32.40  32.40  34.51  39.75  41.34
         41.35  48.13  55.28  55.30  57.99  59.17  64.82  76.75  76.75  80.97
         81.48  81.48  90.27  92.03
  98  1 -16.11 -15.48 -15.48 -14.95 -12.00 -11.36 -11.36 -10.56  -9.71  -9.21
         -9.21  -8.60  -7.40  -7.34  -7.34  -6.60  -3.62  -2.91  -2.69  -2.69
         -2.02  -2.02  -1.61  -1.43  -0.32  -0.32  -0.28  -0.13   0.22   0.22
          0.52   0.99   1.54   1.93   2.30   2.56   2.56   4.08   4.08   5.14
          5.72   7.66   7.66   7.95   8.52   8.53   9.33   9.53   9.76   9.85
          9.85  10.57  11.07  11.64  11.65  12.04  12.65  12.84  12.92  12.93
         13.52  13.72  13.72  14.45  14.96  15.20  15.20  15.45  17.53  18.37
         18.37  19.19  19.99  19.99  20.40  20.46  21.68  21.69  21.90  22.42
         25.35  25.96  26.13  26.13  27.88  35.91  35.91  41.01  44.42  44.43
         50.96  51.65  54.05  54.05  59.62  61.34  63.02  69.87  69.89  81.29
         81.30  82.45  84.88  87.77
  99  1 -16.11 -15.48 -15.48 -14.95 -12.00 -11.37 -11.37 -10.56  -9.71  -9.21
         -9.20  -8.59  -7.40  -7.34  -7.34  -6.60  -3.62  -2.90  -2.69  -2.69
         -2.01  -2.01  -1.61  -1.42  -0.34  -0.34  -0.29  -0.15   0.22   0.22
          0.51   0.98   1.55   1.94   2.30   2.57   2.57   4.08   4.08   5.15
          5.72   7.66   7.66   7.95   8.53   8.53   9.32   9.52   9.74   9.88
          9.88  10.57  11.09  11.63  11.63  12.02  12.66  12.83  12.89  12.89
         13.50  13.72  13.72  14.45  14.97  15.23  15.23  15.46  17.54  18.37
         18.37  19.20  19.99  19.99  20.41  20.46  21.70  21.70  21.90  22.40
         25.34  25.95  26.13  26.14  27.89  35.91  35.92  41.02  44.51  44.52
         50.98  51.69  54.03  54.04  59.67  61.23  63.08  70.07  70.07  81.30
         81.31  82.46  84.83  87.74
 100  1 -15.93 -15.37 -15.37 -15.01 -12.45 -12.05 -12.05 -11.41  -8.69  -8.26
         -8.26  -7.53  -7.27  -7.24  -7.24  -6.67  -3.52  -3.47  -3.09  -3.09
         -2.39  -2.39  -2.02  -1.98  -1.56  -1.18  -1.05  -1.05   1.20   1.20
          2.01   2.20   2.38   3.05   3.43   3.87   3.87   4.25   4.25   4.48
          5.10   6.92   6.93   7.11   7.11   7.63   7.96   8.60   8.78   8.78
          8.90   9.19   9.26  10.05  10.48  10.48  13.81  14.06  14.06  15.05
         15.05  15.11  15.55  15.79  15.84  15.95  16.56  16.56  17.72  18.37
         18.40  18.40  19.03  19.03  19.36  19.85  20.54  20.54  21.22  21.86
         26.89  27.13  27.13  28.83  28.98  32.45  32.45  34.52  39.76  41.38
         41.39  48.08  55.45  55.46  58.01  59.16  64.94  76.85  76.85  81.00
         81.52  81.52  90.17  92.32
 101  1 -15.61 -15.24 -15.24 -15.24 -12.56 -12.55 -12.55 -12.15  -7.48  -7.48
         -7.48  -7.06  -7.06  -7.06  -6.82  -6.82  -4.15  -3.69  -3.69  -3.69
         -2.30  -2.30  -2.30  -2.16  -2.16  -1.87  -1.87  -1.87   2.68   2.69
          2.69   3.11   3.99   3.99   4.03   4.03   4.03   5.00   5.33   5.33
          5.33   6.11   6.11   6.11   6.24   6.24   6.25   7.66   7.66   7.86
          7.87   7.87   8.64   8.64   8.64   8.70  15.95  15.95  15.95  16.00
         16.47  16.47  16.71  16.71  16.71  17.39  17.39  17.39  18.16  18.16
         18.16  18.98  18.98  18.98  19.43  19.43  19.43  20.04  20.04  21.86
         28.32  28.32  28.32  29.78  29.78  29.93  29.93  29.93  51.41  51.41
         51.42  57.02  60.69  60.71  60.71  71.89  71.89  71.90  72.65  72.65
         88.11  88.11  88.11 102.62
 102  1 -15.61 -15.26 -15.24 -15.23 -12.56 -12.55 -12.55 -12.15  -7.48  -7.48
         -7.46  -7.06  -7.06  -7.05  -6.83  -6.83  -4.17  -3.69  -3.69  -3.67
         -2.30  -2.30  -2.29  -2.17  -2.16  -1.87  -1.87  -1.86   2.69   2.71
          2.72   3.10   3.98   4.00   4.02   4.04   4.04   5.00   5.31   5.32
          5.32   6.08   6.09   6.10   6.22   6.23   6.24   7.66   7.68   7.86
          7.87   7.88   8.65   8.66   8.67   8.72  15.93  15.95  15.96  16.02
         16.47  16.49  16.71  16.73  16.74  17.36  17.37  17.38  18.12  18.16
         18.16  18.98  18.98  18.99  19.40  19.42  19.44  20.02  20.03  21.92
         28.29  28.29  28.32  29.75  29.78  29.93  29.94  29.96  51.37  51.39
         51.55  57.04  60.50  60.53  60.87  71.87  71.98  71.98  72.07  72.38
         87.96  88.01  88.10 102.47
 103  1 -15.93 -15.38 -15.37 -15.01 -12.46 -12.06 -12.05 -11.41  -8.69  -8.26
         -8.25  -7.54  -7.28  -7.25  -7.22  -6.67  -3.53  -3.48  -3.09  -3.08
         -2.39  -2.38  -2.03  -1.99  -1.55  -1.18  -1.05  -1.03   1.21   1.23
          2.00   2.20   2.41   3.03   3.42   3.86   3.87   4.23   4.24   4.48
          5.11   6.90   6.93   7.08   7.10   7.63   7.98   8.58   8.77   8.78
          8.90   9.21   9.29  10.06  10.49  10.51  13.82  14.05  14.06  15.03
         15.06  15.12  15.56  15.81  15.86  15.95  16.52  16.55  17.71  18.37
         18.40  18.43  19.00  19.02  19.36  19.83  20.52  20.54  21.21  21.89
         26.86  27.11  27.14  28.82  28.99  32.43  32.44  34.50  39.72  41.33
         41.43  48.04  55.39  55.63  57.89  59.12  64.75  76.72  76.75  81.07
         81.52  81.55  90.25  91.76
 104  1 -16.11 -15.49 -15.48 -14.95 -12.00 -11.37 -11.36 -10.56  -9.71  -9.21
         -9.20  -8.59  -7.40  -7.34  -7.32  -6.61  -3.63  -2.91  -2.69  -2.67
         -2.02  -2.01  -1.62  -1.43  -0.33  -0.31  -0.29  -0.15   0.22   0.23
          0.51   0.97   1.54   1.92   2.32   2.57   2.58   4.06   4.06   5.16
          5.74   7.63   7.64   7.95   8.52   8.54   9.33   9.53   9.76   9.85
          9.87  10.58  11.08  11.63  11.63  12.04  12.67  12.83  12.90  12.92
         13.51  13.69  13.73  14.48  14.97  15.19  15.23  15.46  17.56  18.35
         18.39  19.18  19.98  19.99  20.41  20.45  21.69  21.70  21.88  22.42
         25.32  25.95  26.13  26.16  27.88  35.90  35.94  40.98  44.46  44.54
         50.81  51.70  54.11  54.25  59.62  61.35  62.91  69.86  69.98  81.21
         81.30  82.50  84.88  87.78
 105  1 -16.11 -15.49 -15.48 -14.95 -12.00 -11.37 -11.36 -10.56  -9.71  -9.21
         -9.20  -8.59  -7.40  -7.34  -7.32  -6.61  -3.63  -2.91  -2.69  -2.67
         -2.02  -2.01  -1.62  -1.43  -0.33  -0.31  -0.29  -0.15   0.22   0.23
          0.51   0.97   1.54   1.92   2.32   2.57   2.58   4.06   4.06   5.16
          5.74   7.63   7.64   7.95   8.52   8.54   9.33   9.53   9.76   9.85
          9.87  10.58  11.08  11.63  11.63  12.04  12.67  12.83  12.90  12.92
         13.51  13.69  13.73  14.48  14.97  15.19  15.23  15.46  17.56  18.35
         18.39  19.18  19.98  19.99  20.41  20.45  21.69  21.70  21.88  22.42
         25.32  25.95  26.13  26.16  27.88  35.90  35.94  40.98  44.46  44.54
         50.81  51.70  54.11  54.25  59.62  61.35  62.91  69.86  69.98  81.21
         81.30  82.50  84.88  87.78
 106  1 -15.93 -15.38 -15.37 -15.01 -12.46 -12.06 -12.05 -11.41  -8.69  -8.26
         -8.25  -7.54  -7.28  -7.25  -7.22  -6.67  -3.53  -3.48  -3.09  -3.08
         -2.39  -2.38  -2.03  -1.99  -1.55  -1.18  -1.05  -1.03   1.21   1.23
          2.00   2.20   2.41   3.03   3.42   3.86   3.87   4.23   4.24   4.48
          5.11   6.90   6.93   7.08   7.10   7.63   7.98   8.58   8.77   8.78
          8.90   9.21   9.29  10.06  10.49  10.51  13.82  14.05  14.06  15.03
         15.06  15.12  15.56  15.81  15.86  15.95  16.52  16.55  17.71  18.37
         18.40  18.43  19.00  19.02  19.36  19.83  20.52  20.54  21.21  21.89
         26.86  27.11  27.14  28.82  28.99  32.43  32.44  34.50  39.72  41.33
         41.43  48.04  55.39  55.63  57.89  59.12  64.75  76.72  76.75  81.07
         81.52  81.55  90.25  91.76
 107  1 -15.61 -15.26 -15.24 -15.23 -12.56 -12.55 -12.55 -12.15  -7.48  -7.48
         -7.46  -7.06  -7.06  -7.05  -6.83  -6.83  -4.17  -3.69  -3.69  -3.67
         -2.30  -2.30  -2.29  -2.17  -2.16  -1.87  -1.87  -1.86   2.69   2.71
          2.72   3.10   3.98   4.00   4.02   4.04   4.04   5.00   5.31   5.32
          5.32   6.08   6.09   6.10   6.22   6.23   6.24   7.66   7.68   7.86
          7.87   7.88   8.65   8.66   8.67   8.72  15.93  15.95  15.96  16.02
         16.47  16.49  16.71  16.73  16.74  17.36  17.37  17.38  18.12  18.16
         18.16  18.98  18.98  18.99  19.40  19.42  19.44  20.02  20.03  21.92
         28.29  28.29  28.32  29.75  29.78  29.93  29.94  29.96  51.37  51.39
         51.55  57.04  60.50  60.53  60.87  71.87  71.98  71.98  72.07  72.38
         87.96  88.01  88.10 102.47
 108  1 -15.61 -15.26 -15.24 -15.23 -12.56 -12.55 -12.55 -12.15  -7.48  -7.48
         -7.46  -7.06  -7.06  -7.05  -6.83  -6.83  -4.17  -3.69  -3.69  -3.67
         -2.30  -2.30  -2.29  -2.17  -2.16  -1.87  -1.87  -1.86   2.69   2.71
          2.72   3.10   3.98   4.00   4.02   4.04   4.04   5.00   5.31   5.32
          5.32   6.08   6.09   6.10   6.22   6.23   6.24   7.66   7.68   7.86
          7.87   7.88   8.65   8.66   8.67   8.72  15.93  15.95  15.96  16.02
         16.47  16.49  16.71  16.73  16.74  17.36  17.37  17.38  18.12  18.16
         18.16  18.98  18.98  18.99  19.40  19.42  19.44  20.02  20.03  21.92
         28.29  28.29  28.32  29.75  29.78  29.93  29.94  29.96  51.37  51.39
         51.55  57.04  60.50  60.53  60.87  71.87  71.98  71.98  72.07  72.38
         87.96  88.01  88.10 102.47
siesta: Fermi energy =      -5.329982 eV

siesta: Program's energy decomposition (eV):
siesta: Ebs     =      -343.660935
siesta: Eions   =      1510.441798
siesta: Ena     =       465.528400
siesta: Ekin    =       324.587242
siesta: Enl     =       110.926301
siesta: DEna    =         5.261210
siesta: DUscf   =         1.520289
siesta: DUext   =         0.000000
siesta: Exc     =      -259.351222
siesta: eta*DQ  =         0.000000
siesta: Emadel  =         0.000000
siesta: Emeta   =         0.000000
siesta: Emolmec =         0.000000
siesta: Ekinion =         0.000000
siesta: Eharris =      -861.970910
siesta: Etot    =      -861.969577
siesta: FreeEng =      -861.969577

siesta: Final energy (eV):
siesta:  Band Struct. =    -343.660935
siesta:       Kinetic =     324.587242
siesta:       Hartree =      58.042661
siesta:    Ext. field =       0.000000
siesta:   Exch.-corr. =    -259.351222
siesta:  Ion-electron =    -446.164814
siesta:       Ion-ion =    -539.083443
siesta:       Ekinion =       0.000000
siesta:         Total =    -861.969577

siesta: Stress tensor (static) (eV/Ang**3):
siesta:     0.001920    0.000341    0.000341
siesta:     0.000341    0.001920    0.000341
siesta:     0.000341    0.000341    0.001920

siesta: Constrained stress tensor (static) (eV/Ang**3):
siesta:     0.001920    0.000341    0.000341
siesta:     0.000341    0.001920    0.000341
siesta:     0.000341    0.000341    0.001920

siesta: Cell volume =        161.779491 Ang**3

siesta: Pressure (static):
siesta:                Solid            Molecule  Units
siesta:          -0.00002092         -0.00000215  Ry/Bohr**3
siesta:          -0.00192043         -0.00019696  eV/Ang**3
siesta:          -3.07690415         -0.31557553  kBar
(Free)E+ p_basis*V_orbitals  =        -852.995973
(Free)Eharris+ p_basis*V_orbitals  =        -852.999485

* Maximum dynamic memory allocated : Node    0 =    85 MB

* Maximum memory occured during init_pulay_arrrays            

timer: CPU execution times:
timer:  Routine       Calls   Time/call    Tot.time        %
timer:  siesta            1     456.197     456.197   100.00
timer:  Setup             1       0.104       0.104     0.02
timer:  bands             3       0.564       1.692     0.37
timer:  writewave         3       0.005       0.016     0.00
timer:  KSV_init          1       0.000       0.000     0.00
timer:  IterMD            5      90.853     454.264    99.58
timer:  hsparse           5       0.206       1.032     0.23
timer:  overlap           5       0.142       0.712     0.16
timer:  IterSCF          24      15.379     369.103    80.91
timer:  kinefsm          10       0.130       1.296     0.28
timer:  nlefsm           10       3.899      38.986     8.55
timer:  DHSCF            29       9.323     270.357    59.26
timer:  DHSCF1            5       0.049       0.244     0.05
timer:  DHSCF2            5       2.177      10.885     2.39
timer:  REORD           184       0.000       0.020     0.00
timer:  POISON           34       0.005       0.168     0.04
timer:  DHSCF3           29       8.209     238.075    52.19
timer:  rhoofd           29       3.780     109.623    24.03
timer:  cellXC           29       0.012       0.352     0.08
timer:  vmat             29       4.410     127.896    28.04
timer:  MolMec           10       0.000       0.000     0.00
timer:  diagon           24       5.841     140.181    30.73
timer:  c-eigval       2693       0.016      43.935     9.63
timer:  c-buildHS      2693       0.012      32.090     7.03
timer:  cdiag          5286       0.007      36.055     7.90
timer:  cdiag1         5286       0.001       2.716     0.60
timer:  cdiag2         5286       0.002       9.573     2.10
timer:  cdiag3         5286       0.004      22.925     5.03
timer:  cdiag4         5286       0.000       0.712     0.16
timer:  c-eigvec       2593       0.021      55.100    12.08
timer:  c-buildD       2592       0.016      42.638     9.35
timer:  DHSCF4            5       4.227      21.137     4.63
timer:  dfscf             5       4.063      20.317     4.45
timer:  overfsm           5       0.117       0.584     0.13
timer:  optical           1       0.000       0.000     0.00
  

elaps: ELAPSED times:
elaps:  Routine       Calls   Time/call    Tot.time        %
elaps:  siesta            1     458.220     458.220   100.00
elaps:  Setup             1       0.108       0.108     0.02
elaps:  bands             3       0.567       1.700     0.37
elaps:  writewave         3       0.007       0.020     0.00
elaps:  KSV_init          1       0.000       0.000     0.00
elaps:  IterMD            5      91.255     456.276    99.58
elaps:  hsparse           5       0.208       1.040     0.23
elaps:  overlap           5       0.144       0.719     0.16
elaps:  IterSCF          24      15.448     370.759    80.91
elaps:  kinefsm          10       0.129       1.294     0.28
elaps:  nlefsm           10       3.911      39.112     8.54
elaps:  DHSCF            29       9.365     271.571    59.27
elaps:  DHSCF1            5       0.050       0.248     0.05
elaps:  DHSCF2            5       2.188      10.940     2.39
elaps:  REORD           184       0.000       0.020     0.00
elaps:  POISON           34       0.005       0.165     0.04
elaps:  DHSCF3           29       8.247     239.150    52.19
elaps:  rhoofd           29       3.796     110.098    24.03
elaps:  cellXC           29       0.012       0.358     0.08
elaps:  vmat             29       4.431     128.509    28.05
elaps:  MolMec           10       0.000       0.000     0.00
elaps:  diagon           24       5.868     140.821    30.73
elaps:  c-eigval       2693       0.016      44.127     9.63
elaps:  c-buildHS      2693       0.012      32.188     7.02
elaps:  cdiag          5286       0.007      36.196     7.90
elaps:  cdiag1         5286       0.001       2.667     0.58
elaps:  cdiag2         5286       0.002       9.481     2.07
elaps:  cdiag3         5286       0.004      23.175     5.06
elaps:  cdiag4         5286       0.000       0.711     0.16
elaps:  c-eigvec       2593       0.021      55.320    12.07
elaps:  c-buildD       2592       0.017      42.873     9.36
elaps:  DHSCF4            5       4.244      21.221     4.63
elaps:  dfscf             5       4.079      20.397     4.45
elaps:  overfsm           5       0.117       0.586     0.13
elaps:  optical           1       0.000       0.000     0.00
  
>> End of run:   9-MAY-2013  16:24:32
