Siesta Version:                                        siesta-3.2
Architecture  : x86_64-unknown-linux-gnu--Gfortran
Compiler flags: gfortran -g -O2
SERIAL version

* Running in serial mode
>> Start of run:  26-APR-2013  12:24:15

                           ***********************       
                           *  WELCOME TO SIESTA  *       
                           ***********************       

reinit: Reading from standard input
************************** Dump of input data file ****************************
# FDF for Adenine geomtry optimization
SystemName             Adenine.gga.DZP          # Short name for naming files
NumberOfSpecies        3            # Number of species
NumberOfAtoms          15           # Number of atoms
##Basis set Defenition##
PAO.BasisType          split        # Type of PAO basis set
PAO.EnergyShift        50 meV
PAO.BasisSize          DZP          # (DZP) Double-z + polarization
%block  Chemical_Species_label
       1  7   N
       2  6   C
       3  1   H
%endblock Chemical_Species_label
MeshCutoff            130. Ry        # Mesh cutoff. real space mesh (Ry)
#XC functional specs
XC.functional          GGA	    # Generalized Gradient Approximation
XC.authors             PBE          # Perdew-Burke-Ernzerhof
	
## SCF options ##
MaxSCFIterations      100           # Maximum number of SCF iter
DM.MixingWeight       0.1           # New DM amount for next SCF cycle
DM.Tolerance          1.d-4         # Tolerance in maximum difference
                                    # between input and output DM
DM.NumberPulay         3
DM.UseSaveDM          true          # to use continuation files
SaveRho                 true
NeglNonOverlapInt     false         # Neglect non-overlap interactions
SolutionMethod        diagon        # OrderN or Diagon
ElectronicTemperature 300 K         # Temp. for Fermi smearing (Ry)
##Output Specification##
WriteMDhistory         true         # Trajectory information
WriteCoorStep          true
WriteCoorXmol          true
WriteMDXmol            true
##Minimization strategy##
MD.TypeOfRun           CG           # Type of dynamics:
MD.NumCGsteps          600          # Number of CG steps for
                                    #   coordinate optimization
MD.MaxCGDispl          0.2 Bohr     # Maximum atomic displacement
                                    #   in one CG step (Bohr)
MD.MaxForceTol         0.04 eV/Ang  # Tolerance in the maximum
                                    #   atomic force (Ry/Bohr)
##Coordinate data
AtomicCoordinatesFormat  NotScaledCartesianAng   # Format for coordinates
%block AtomicCoordinatesAndAtomicSpecies
   11.54100094    6.31362771    3.45960492   1  N          1
   10.64912161    8.39014580    3.45723428   1  N          2
    7.56179549    8.72186773    3.45660473   1  N          3
    7.51677522    6.40414925    3.46142484   1  N          4
    9.47608980    4.98939922    3.46149595   1  N          5
   11.76189822    7.67603301    3.46074476   2  C          6
    9.64861115    7.44720159    3.45786587   2  C          7
    8.23094583    7.54071849    3.45449535   2  C          8
    8.15660838    5.22417047    3.46779741   2  C          9
   10.17309133    6.13279984    3.45944364   2  C         10
   12.23801595    5.56025582    3.46916130   3  H         11
   12.78939234    8.09812215    3.47249939   3  H         12
    6.53979852    8.68942868    3.40251529   3  H         13
    8.07666182    9.60511041    3.40154388   3  H         14
    7.49916097    4.32121097    3.48644516   3  H         15
%endblock  AtomicCoordinatesAndAtomicSpecies
%block ExternalElectricField
0.0000 0.000 0.0000 V/Ang
%endblock ExternalElectricField
************************** End of input data file *****************************

reinit: -----------------------------------------------------------------------
reinit: System Name: Adenine.gga.DZP
reinit: -----------------------------------------------------------------------
reinit: System Label: siesta                                                      
reinit: -----------------------------------------------------------------------

initatom: Reading input for the pseudopotentials and atomic orbitals ----------
 Species number:            1  Label: N Atomic number:           7
 Species number:            2  Label: C Atomic number:           6
 Species number:            3  Label: H Atomic number:           1
Ground state valence configuration:   2s02  2p03
Reading pseudopotential information in formatted form from N.psf

Valence configuration for pseudopotential generation:
2s( 2.00) rc: 1.48
2p( 3.00) rc: 1.48
3d( 0.00) rc: 1.48
4f( 0.00) rc: 1.48
Ground state valence configuration:   2s02  2p02
Reading pseudopotential information in formatted form from C.psf

Valence configuration for pseudopotential generation:
2s( 2.00) rc: 1.54
2p( 2.00) rc: 1.54
3d( 0.00) rc: 1.54
4f( 0.00) rc: 1.54
Ground state valence configuration:   1s01
Reading pseudopotential information in formatted form from H.psf

Valence configuration for pseudopotential generation:
1s( 1.00) rc: 1.31
2p( 0.00) rc: 1.31
3d( 0.00) rc: 0.37
4f( 0.00) rc: 1.31
For N, standard SIESTA heuristics set lmxkb to 3
 (one more than the basis l, including polarization orbitals).
Use PS.lmax or PS.KBprojectors blocks to override.
For C, standard SIESTA heuristics set lmxkb to 3
 (one more than the basis l, including polarization orbitals).
Use PS.lmax or PS.KBprojectors blocks to override.
For H, standard SIESTA heuristics set lmxkb to 2
 (one more than the basis l, including polarization orbitals).
Use PS.lmax or PS.KBprojectors blocks to override.

<basis_specs>
===============================================================================
N                    Z=   7    Mass=  14.010        Charge= 0.17977+309
Lmxo=1 Lmxkb= 3    BasisType=split      Semic=F
L=0  Nsemic=0  Cnfigmx=2
          n=1  nzeta=2  polorb=0
            splnorm:   0.15000    
               vcte:    0.0000    
               rinn:    0.0000    
                rcs:    0.0000      0.0000    
            lambdas:    1.0000      1.0000    
L=1  Nsemic=0  Cnfigmx=2
          n=1  nzeta=2  polorb=1
            splnorm:   0.15000    
               vcte:    0.0000    
               rinn:    0.0000    
                rcs:    0.0000      0.0000    
            lambdas:    1.0000      1.0000    
-------------------------------------------------------------------------------
L=0  Nkbl=1  erefs: 0.17977+309
L=1  Nkbl=1  erefs: 0.17977+309
L=2  Nkbl=1  erefs: 0.17977+309
L=3  Nkbl=1  erefs: 0.17977+309
===============================================================================
</basis_specs>

atom: Called for N                     (Z =   7)

read_vps: Pseudopotential generation method:
read_vps: ATM3      Troullier-Martins                       
Total valence charge:    5.00000

read_vps: Pseudopotential includes a core correction:
read_vps: Pseudo-core for xc-correction

xc_check: Exchange-correlation functional:
xc_check: GGA Perdew, Burke & Ernzerhof 1996
V l=0 = -2*Zval/r beyond r=  1.4606
V l=1 = -2*Zval/r beyond r=  1.4606
V l=2 = -2*Zval/r beyond r=  1.4606
V l=3 = -2*Zval/r beyond r=  1.4606
All V_l potentials equal beyond r=  1.4606
This should be close to max(r_c) in ps generation
All pots = -2*Zval/r beyond r=  1.4606

VLOCAL1: 99.0% of the norm of Vloc inside     20.347 Ry
VLOCAL1: 99.9% of the norm of Vloc inside     46.372 Ry
atom: Maximum radius for 4*pi*r*r*local-pseudopot. charge    1.76189
atom: Maximum radius for r*vlocal+2*Zval:    1.53550
GHOST: No ghost state for L =  0
GHOST: No ghost state for L =  1
GHOST: No ghost state for L =  2
GHOST: No ghost state for L =  3

KBgen: Kleinman-Bylander projectors: 
   l= 0   rc=  1.634559   el= -1.363963   Ekb=  5.296955   kbcos=  0.335621
   l= 1   rc=  1.614250   el= -0.521451   Ekb= -5.259161   kbcos= -0.433408
   l= 2   rc=  1.718383   el=  0.001991   Ekb= -1.271464   kbcos= -0.007566
   l= 3   rc=  1.761893   el=  0.003093   Ekb= -0.494769   kbcos= -0.001015

KBgen: Total number of  Kleinman-Bylander projectors:   16
atom: -------------------------------------------------------------------------

atom: SANKEY-TYPE ORBITALS:
atom: Selected multiple-zeta basis: split     

SPLIT: Orbitals with angular momentum L= 0

SPLIT: Basis orbitals for state 2s

SPLIT: PAO cut-off radius determined from an
SPLIT: energy shift=  0.003675 Ry

   izeta = 1
                 lambda =    1.000000
                     rc =    4.388595
                 energy =   -1.360245
                kinetic =    1.158929
    potential(screened) =   -2.519174
       potential(ionic) =   -8.027872

   izeta = 2
                 rmatch =    2.941647
              splitnorm =    0.150000
                 energy =   -1.183606
                kinetic =    1.761198
    potential(screened) =   -2.944804
       potential(ionic) =   -8.851642

SPLIT: Orbitals with angular momentum L= 1

SPLIT: Basis orbitals for state 2p

SPLIT: PAO cut-off radius determined from an
SPLIT: energy shift=  0.003675 Ry

   izeta = 1
                 lambda =    1.000000
                     rc =    5.496027
                 energy =   -0.517878
                kinetic =    3.386838
    potential(screened) =   -3.904716
       potential(ionic) =   -9.203549

   izeta = 2
                 rmatch =    3.092486
              splitnorm =    0.150000
                 energy =   -0.339364
                kinetic =    5.009477
    potential(screened) =   -5.348841
       potential(ionic) =  -11.257254

POLgen: Perturbative polarization orbital with L=  2

POLgen: Polarization orbital for state 2p

   izeta = 1
                     rc =    5.496027
                 energy =    1.497880
                kinetic =    3.066405
    potential(screened) =   -1.568525
       potential(ionic) =   -5.774358
atom: Total number of Sankey-type orbitals: 13

atm_pop: Valence configuration (for local Pseudopot. screening):
 2s( 2.00)                                                            
 2p( 3.00)                                                            
Vna: chval, zval:    5.00000   5.00000

Vna:  Cut-off radius for the neutral-atom potential:   5.496027
comcore: Pseudo-core radius Rcore=  1.554824

atom: _________________________________________________________________________

<basis_specs>
===============================================================================
C                    Z=   6    Mass=  12.010        Charge= 0.17977+309
Lmxo=1 Lmxkb= 3    BasisType=split      Semic=F
L=0  Nsemic=0  Cnfigmx=2
          n=1  nzeta=2  polorb=0
            splnorm:   0.15000    
               vcte:    0.0000    
               rinn:    0.0000    
                rcs:    0.0000      0.0000    
            lambdas:    1.0000      1.0000    
L=1  Nsemic=0  Cnfigmx=2
          n=1  nzeta=2  polorb=1
            splnorm:   0.15000    
               vcte:    0.0000    
               rinn:    0.0000    
                rcs:    0.0000      0.0000    
            lambdas:    1.0000      1.0000    
-------------------------------------------------------------------------------
L=0  Nkbl=1  erefs: 0.17977+309
L=1  Nkbl=1  erefs: 0.17977+309
L=2  Nkbl=1  erefs: 0.17977+309
L=3  Nkbl=1  erefs: 0.17977+309
===============================================================================
</basis_specs>

atom: Called for C                     (Z =   6)

read_vps: Pseudopotential generation method:
read_vps: ATM3      Troullier-Martins                       
Total valence charge:    4.00000

read_vps: Pseudopotential includes a core correction:
read_vps: Pseudo-core for xc-correction

xc_check: Exchange-correlation functional:
xc_check: GGA Perdew, Burke & Ernzerhof 1996
V l=0 = -2*Zval/r beyond r=  1.5227
V l=1 = -2*Zval/r beyond r=  1.5227
V l=2 = -2*Zval/r beyond r=  1.5227
V l=3 = -2*Zval/r beyond r=  1.5038
All V_l potentials equal beyond r=  1.5227
This should be close to max(r_c) in ps generation
All pots = -2*Zval/r beyond r=  1.5227

VLOCAL1: 99.0% of the norm of Vloc inside     18.722 Ry
VLOCAL1: 99.9% of the norm of Vloc inside     42.668 Ry
atom: Maximum radius for 4*pi*r*r*local-pseudopot. charge    1.83678
atom: Maximum radius for r*vlocal+2*Zval:    1.58088
GHOST: No ghost state for L =  0
GHOST: No ghost state for L =  1
GHOST: No ghost state for L =  2
GHOST: No ghost state for L =  3

KBgen: Kleinman-Bylander projectors: 
   l= 0   rc=  1.704034   el= -1.009801   Ekb=  5.335044   kbcos=  0.316824
   l= 1   rc=  1.704034   el= -0.388707   Ekb= -3.785862   kbcos= -0.366464
   l= 2   rc=  1.791422   el=  0.001971   Ekb= -0.970471   kbcos= -0.009212
   l= 3   rc=  1.859892   el=  0.003065   Ekb= -0.399525   kbcos= -0.001223

KBgen: Total number of  Kleinman-Bylander projectors:   16
atom: -------------------------------------------------------------------------

atom: SANKEY-TYPE ORBITALS:
atom: Selected multiple-zeta basis: split     

SPLIT: Orbitals with angular momentum L= 0

SPLIT: Basis orbitals for state 2s

SPLIT: PAO cut-off radius determined from an
SPLIT: energy shift=  0.003675 Ry

   izeta = 1
                 lambda =    1.000000
                     rc =    4.993604
                 energy =   -1.005980
                kinetic =    0.839218
    potential(screened) =   -1.845197
       potential(ionic) =   -5.392735

   izeta = 2
                 rmatch =    3.475094
              splitnorm =    0.150000
                 energy =   -0.867669
                kinetic =    1.299533
    potential(screened) =   -2.167202
       potential(ionic) =   -5.961376

SPLIT: Orbitals with angular momentum L= 1

SPLIT: Basis orbitals for state 2p

SPLIT: PAO cut-off radius determined from an
SPLIT: energy shift=  0.003675 Ry

   izeta = 1
                 lambda =    1.000000
                     rc =    6.253707
                 energy =   -0.385053
                kinetic =    2.351236
    potential(screened) =   -2.736289
       potential(ionic) =   -6.136106

   izeta = 2
                 rmatch =    3.745781
              splitnorm =    0.150000
                 energy =   -0.256704
                kinetic =    3.501099
    potential(screened) =   -3.757803
       potential(ionic) =   -7.537656

POLgen: Perturbative polarization orbital with L=  2

POLgen: Polarization orbital for state 2p

   izeta = 1
                     rc =    6.253707
                 energy =    1.023651
                kinetic =    2.146437
    potential(screened) =   -1.122786
       potential(ionic) =   -3.868043
atom: Total number of Sankey-type orbitals: 13

atm_pop: Valence configuration (for local Pseudopot. screening):
 2s( 2.00)                                                            
 2p( 2.00)                                                            
Vna: chval, zval:    4.00000   4.00000

Vna:  Cut-off radius for the neutral-atom potential:   6.253707
comcore: Pseudo-core radius Rcore=  1.791422

atom: _________________________________________________________________________

<basis_specs>
===============================================================================
H                    Z=   1    Mass=  1.0100        Charge= 0.17977+309
Lmxo=0 Lmxkb= 2    BasisType=split      Semic=F
L=0  Nsemic=0  Cnfigmx=1
          n=1  nzeta=2  polorb=1
            splnorm:   0.15000    
               vcte:    0.0000    
               rinn:    0.0000    
                rcs:    0.0000      0.0000    
            lambdas:    1.0000      1.0000    
-------------------------------------------------------------------------------
L=0  Nkbl=1  erefs: 0.17977+309
L=1  Nkbl=1  erefs: 0.17977+309
L=2  Nkbl=1  erefs: 0.17977+309
===============================================================================
</basis_specs>

atom: Called for H                     (Z =   1)

read_vps: Pseudopotential generation method:
read_vps: ATM3      Troullier-Martins                       
Total valence charge:    1.00000

xc_check: Exchange-correlation functional:
xc_check: GGA Perdew, Burke & Ernzerhof 1996
V l=0 = -2*Zval/r beyond r=  1.2977
V l=1 = -2*Zval/r beyond r=  1.2815
V l=2 = -2*Zval/r beyond r=  1.2656
All V_l potentials equal beyond r=  1.2977
This should be close to max(r_c) in ps generation
All pots = -2*Zval/r beyond r=  1.2977

VLOCAL1: 99.0% of the norm of Vloc inside     25.776 Ry
VLOCAL1: 99.9% of the norm of Vloc inside     58.745 Ry
atom: Maximum radius for 4*pi*r*r*local-pseudopot. charge    1.52711
atom: Maximum radius for r*vlocal+2*Zval:    1.28155
GHOST: No ghost state for L =  0
GHOST: No ghost state for L =  1
GHOST: No ghost state for L =  2

KBgen: Kleinman-Bylander projectors: 
   l= 0   rc=  1.434438   el= -0.477200   Ekb= -1.957043   kbcos= -0.361614
   l= 1   rc=  1.508111   el=  0.001076   Ekb= -0.424224   kbcos= -0.025441
   l= 2   rc=  1.527112   el=  0.002010   Ekb= -0.378578   kbcos= -0.002010

KBgen: Total number of  Kleinman-Bylander projectors:    9
atom: -------------------------------------------------------------------------

atom: SANKEY-TYPE ORBITALS:
atom: Selected multiple-zeta basis: split     

SPLIT: Orbitals with angular momentum L= 0

SPLIT: Basis orbitals for state 1s

SPLIT: PAO cut-off radius determined from an
SPLIT: energy shift=  0.003675 Ry

   izeta = 1
                 lambda =    1.000000
                     rc =    6.047169
                 energy =   -0.473724
                kinetic =    0.890782
    potential(screened) =   -1.364506
       potential(ionic) =   -1.884960

   izeta = 2
                 rmatch =    4.052721
              splitnorm =    0.150000
                 energy =   -0.382797
                kinetic =    1.427721
    potential(screened) =   -1.810519
       potential(ionic) =   -2.357368

POLgen: Perturbative polarization orbital with L=  1

POLgen: Polarization orbital for state 1s

   izeta = 1
                     rc =    6.047169
                 energy =    0.568239
                kinetic =    1.185287
    potential(screened) =   -0.617047
       potential(ionic) =   -1.087200
atom: Total number of Sankey-type orbitals:  5

atm_pop: Valence configuration (for local Pseudopot. screening):
 1s( 1.00)                                                            
Vna: chval, zval:    1.00000   1.00000

Vna:  Cut-off radius for the neutral-atom potential:   6.047169

atom: _________________________________________________________________________

prinput: Basis input ----------------------------------------------------------

PAO.BasisType split     

%block ChemicalSpeciesLabel
    1    7 N                       # Species index, atomic number, species label
    2    6 C                       # Species index, atomic number, species label
    3    1 H                       # Species index, atomic number, species label
%endblock ChemicalSpeciesLabel

%block PAO.Basis                 # Define Basis set
N                     2                    # Species label, number of l-shells
 n=2   0   2                         # n, l, Nzeta 
   4.389      2.942   
   1.000      1.000   
 n=2   1   2 P   1                   # n, l, Nzeta, Polarization, NzetaPol
   5.496      3.092   
   1.000      1.000   
C                     2                    # Species label, number of l-shells
 n=2   0   2                         # n, l, Nzeta 
   4.994      3.475   
   1.000      1.000   
 n=2   1   2 P   1                   # n, l, Nzeta, Polarization, NzetaPol
   6.254      3.746   
   1.000      1.000   
H                     1                    # Species label, number of l-shells
 n=1   0   2 P   1                   # n, l, Nzeta, Polarization, NzetaPol
   6.047      4.053   
   1.000      1.000   
%endblock PAO.Basis

prinput: ----------------------------------------------------------------------

coor:   Atomic-coordinates input format  =     Cartesian coordinates
coor:                                          (in Angstroms)

siesta: Atomic coordinates (Bohr) and species
siesta:     21.80934  11.93103   6.53771  1        1
siesta:     20.12393  15.85508   6.53323  1        2
siesta:     14.28973  16.48195   6.53204  1        3
siesta:     14.20465  12.10209   6.54115  1        4
siesta:     17.90722   9.42860   6.54128  1        5
siesta:     22.22678  14.50561   6.53986  2        6
siesta:     18.23324  14.07318   6.53442  2        7
siesta:     15.55424  14.24990   6.52805  2        8
siesta:     15.41376   9.87226   6.55319  2        9
siesta:     19.22436  11.58932   6.53740  2       10
siesta:     23.12651  10.50736   6.55577  3       11
siesta:     24.16846  15.30324   6.56208  3       12
siesta:     12.35843  16.42065   6.42982  3       13
siesta:     15.26268  18.15104   6.42799  3       14
siesta:     14.17137   8.16591   6.58843  3       15

siesta: Automatic unit cell vectors (Ang):
siesta:   13.914603    0.000000    0.000000
siesta:    0.000000   12.852339    0.000000
siesta:    0.000000    0.000000    7.295132

siesta: System type = molecule  

initatomlists: Number of atoms, orbitals, and projectors:     15   155   205

siesta: ******************** Simulation parameters ****************************
siesta:
siesta: The following are some of the parameters of the simulation.
siesta: A complete list of the parameters used, including default values,
siesta: can be found in file out.fdf
siesta:
redata: Non-Collinear-spin run           =     F
redata: SpinPolarized (Up/Down) run      =     F
redata: Number of spin components        =     1
redata: Long output                      =     F
redata: Number of Atomic Species         =        3
redata: Charge density info will appear in .RHO file
redata: Write Mulliken Pop.              =     NO
redata: Mesh Cutoff                      =   130.0000  Ry
redata: Net charge of the system         =     0.0000 |e|
redata: Max. number of SCF Iter          =      100
redata: Performing Pulay mixing using    =     3 iterations
redata: Mix DM in first SCF step ?       =     F
redata: Write Pulay info on disk?        =     F
redata: Discard 1st Pulay DM after  kick =     F
redata: New DM Mixing Weight             =     0.1000
redata: New DM Occupancy tolerance       = 0.000000000001
redata: No kicks to SCF
redata: DM Mixing Weight for Kicks       =     0.5000
redata: DM Tolerance for SCF             =     0.000100
redata: Require Energy convergence for SCF =     F
redata: DM Energy tolerance for SCF      =     0.000100 eV
redata: Require Harris convergence for SCF =     F
redata: DM Harris energy tolerance for SCF =     0.000100 eV
redata: Using Saved Data (generic)   =     F
redata: Use continuation files for DM    =     T
redata: Neglect nonoverlap interactions  =     F
redata: Method of Calculation            =     Diagonalization
redata: Divide and Conquer               =     T
redata: Electronic Temperature           =     0.0019  Ry
redata: Fix the spin of the system       =     F
redata: Dynamics option                  =     CG coord. optimization
redata: Variable cell                    =     F
redata: Use continuation files for CG    =     F
redata: Max atomic displ per move        =     0.2000  Bohr
redata: Maximum number of CG moves       =      600
redata: Force tolerance                  =     0.0016  Ry/Bohr
redata: ***********************************************************************
Total number of electrons:    50.000000
Total ionic charge:    50.000000
 Kpoints in:            1 . Kpoints trimmed:            1

siesta: k-grid: Number of k-points =     1
siesta: k-grid: Cutoff (effective) =     3.648 Ang
siesta: k-grid: Supercell and displacements
siesta: k-grid:    1   0   0      0.000
siesta: k-grid:    0   1   0      0.000
siesta: k-grid:    0   0   1      0.000

* Maximum dynamic memory allocated =     3 MB

siesta:                 ==============================
                            Begin CG move =      0
                        ==============================

outcoor: Atomic coordinates (Ang):                          
   11.54100094    6.31362771    3.45960492   1       1  N
   10.64912161    8.39014580    3.45723428   1       2  N
    7.56179549    8.72186773    3.45660473   1       3  N
    7.51677522    6.40414925    3.46142484   1       4  N
    9.47608980    4.98939922    3.46149595   1       5  N
   11.76189822    7.67603301    3.46074476   2       6  C
    9.64861115    7.44720159    3.45786587   2       7  C
    8.23094583    7.54071849    3.45449535   2       8  C
    8.15660838    5.22417047    3.46779741   2       9  C
   10.17309133    6.13279984    3.45944364   2      10  C
   12.23801595    5.56025582    3.46916130   3      11  H
   12.78939234    8.09812215    3.47249939   3      12  H
    6.53979852    8.68942868    3.40251529   3      13  H
    8.07666182    9.60511041    3.40154388   3      14  H
    7.49916097    4.32121097    3.48644516   3      15  H

outcell: Unit cell vectors (Ang):
       13.914603    0.000000    0.000000
        0.000000   12.852339    0.000000
        0.000000    0.000000    7.295132

outcell: Cell vector modules (Ang)   :   13.914603   12.852339    7.295132
outcell: Cell angles (23,13,12) (deg):     90.0000     90.0000     90.0000
outcell: Cell volume (Ang**3)        :   1304.6264
New_DM. Step:     1
Initializing Density Matrix...

InitMesh: MESH =    96 x    90 x    54 =      466560
InitMesh: Mesh cutoff (required, used) =   130.000   131.554 Ry

* Maximum dynamic memory allocated =    52 MB

stepf: Fermi-Dirac step function

siesta: Program's energy decomposition (eV):
siesta: Ebs     =      -831.284939
siesta: Eions   =      3453.429722
siesta: Ena     =       640.774117
siesta: Ekin    =      1343.601723
siesta: Enl     =      -123.730112
siesta: DEna    =         0.000002
siesta: DUscf   =         0.000000
siesta: DUext   =         0.000000
siesta: Exc     =      -705.166377
siesta: eta*DQ  =         0.000000
siesta: Emadel  =         0.000000
siesta: Emeta   =         0.000000
siesta: Emolmec =         0.000000
siesta: Ekinion =         0.000000
siesta: Eharris =     -2296.840508
siesta: Etot    =     -2297.950371
siesta: FreeEng =     -2297.950371

siesta: iscf   Eharris(eV)      E_KS(eV)   FreeEng(eV)   dDmax  Ef(eV)
siesta:    1    -2296.8405    -2297.9504    -2297.9504  1.9506 -4.8521
timer: Routine,Calls,Time,% = IterSCF        1      13.632  83.20
elaps: Routine,Calls,Wall,% = IterSCF        1      13.720  83.05
siesta:    2    -2299.1333    -2287.0924    -2287.0924  0.8476 -1.0611
siesta:    3    -2293.0897    -2291.6309    -2291.6309  0.4507 -3.2684
siesta:    4    -2292.3233    -2290.4626    -2290.4626  0.2871 -3.0782
siesta:    5    -2291.9892    -2290.5878    -2290.5878  0.1082 -3.5110
siesta:    6    -2291.9539    -2290.9193    -2290.9193  0.0705 -3.7607
siesta:    7    -2291.9080    -2291.2666    -2291.2666  0.0639 -3.9175
siesta:    8    -2291.8881    -2291.4677    -2291.4677  0.0569 -3.9335
siesta:    9    -2291.8843    -2291.5828    -2291.5828  0.0433 -3.8808
siesta:   10    -2291.8855    -2291.6299    -2291.6299  0.0265 -3.8031
siesta:   11    -2291.8861    -2291.6304    -2291.6304  0.0222 -3.7789
siesta:   12    -2291.8858    -2291.6265    -2291.6265  0.0140 -3.8136
siesta:   13    -2291.8851    -2291.6486    -2291.6486  0.0095 -3.8556
siesta:   14    -2291.8843    -2291.6983    -2291.6983  0.0097 -3.8815
siesta:   15    -2291.8838    -2291.7443    -2291.7443  0.0089 -3.8758
siesta:   16    -2291.8836    -2291.7896    -2291.7896  0.0072 -3.8560
siesta:   17    -2291.8836    -2291.8188    -2291.8188  0.0052 -3.8398
siesta:   18    -2291.8837    -2291.8343    -2291.8343  0.0039 -3.8355
siesta:   19    -2291.8836    -2291.8364    -2291.8364  0.0027 -3.8439
siesta:   20    -2291.8836    -2291.8362    -2291.8362  0.0015 -3.8525
siesta:   21    -2291.8836    -2291.8398    -2291.8398  0.0013 -3.8559
siesta:   22    -2291.8836    -2291.8471    -2291.8471  0.0013 -3.8539
siesta:   23    -2291.8836    -2291.8582    -2291.8582  0.0012 -3.8494
siesta:   24    -2291.8836    -2291.8661    -2291.8661  0.0010 -3.8471
siesta:   25    -2291.8836    -2291.8720    -2291.8720  0.0007 -3.8471
siesta:   26    -2291.8836    -2291.8744    -2291.8744  0.0005 -3.8486
siesta:   27    -2291.8835    -2291.8751    -2291.8751  0.0003 -3.8499
siesta:   28    -2291.8835    -2291.8754    -2291.8754  0.0002 -3.8500
siesta:   29    -2291.8836    -2291.8763    -2291.8763  0.0002 -3.8494
siesta:   30    -2291.8835    -2291.8779    -2291.8779  0.0002 -3.8488
siesta:   31    -2291.8836    -2291.8793    -2291.8793  0.0002 -3.8486
siesta:   32    -2291.8836    -2291.8807    -2291.8807  0.0001 -3.8487
siesta:   33    -2291.8836    -2291.8817    -2291.8817  0.0001 -3.8490

siesta: E_KS(eV) =            -2291.8822

siesta: E_KS - E_eggbox =     -2291.8822

siesta: Atomic forces (eV/Ang):
----------------------------------------
   Tot    0.051533   -0.012470   -0.161267
----------------------------------------
   Max    0.794551
   Res    0.292036    sqrt( Sum f_i^2 / 3N )
----------------------------------------
   Max    0.794551    constrained

Stress-tensor-Voigt (kbar):       -2.66       -3.55        0.06       -0.12       -0.00        0.01
(Free)E + p*V (eV/cell)    -2290.2116
Target enthalpy (eV/cell)    -2291.8822

* Maximum dynamic memory allocated =    53 MB

siesta:                 ==============================
                            Begin CG move =      1
                        ==============================

outcoor: Atomic coordinates (Ang):                          
   11.56203690    6.28221415    3.46025603   1       1  N
   10.66038308    8.43159821    3.45587770   1       2  N
    7.55056631    8.75021414    3.45572959   1       3  N
    7.47385030    6.40195619    3.45968237   1       4  N
    9.49366311    4.95188512    3.46066113   1       5  N
   11.79693718    7.68965424    3.46090808   2       6  C
    9.64039979    7.43843887    3.45652149   2       7  C
    8.24050485    7.53939919    3.45421343   2       8  C
    8.14641162    5.20313588    3.46793599   2       9  C
   10.16489354    6.14296586    3.45818383   2      10  C
   12.22894876    5.57232838    3.46881075   3      11  H
   12.77737250    8.09305937    3.47137834   3      12  H
    6.55415467    8.69429347    3.40327543   3      13  H
    8.06563486    9.59204701    3.40195929   3      14  H
    7.50599412    4.33037736    3.48477101   3      15  H

outcell: Unit cell vectors (Ang):
       13.914603    0.000000    0.000000
        0.000000   12.852339    0.000000
        0.000000    0.000000    7.295132

outcell: Cell vector modules (Ang)   :   13.914603   12.852339    7.295132
outcell: Cell angles (23,13,12) (deg):     90.0000     90.0000     90.0000
outcell: Cell volume (Ang**3)        :   1304.6264
New_DM. Step:     2
Re-using DM from previous geometry...
Re-using DM without extrapolation (not allowed)
Density Matrix sparsity pattern changed.

siesta: iscf   Eharris(eV)      E_KS(eV)   FreeEng(eV)   dDmax  Ef(eV)
siesta:    1    -2291.6865    -2290.2466    -2290.2466  0.0766 -4.0867
siesta:    2    -2291.8003    -2291.5604    -2291.5604  0.0697 -3.7239
siesta:    3    -2291.6592    -2291.2299    -2291.2299  0.0270 -3.8394
siesta:    4    -2291.6401    -2291.6129    -2291.6129  0.0068 -3.8460
siesta:    5    -2291.6390    -2291.6211    -2291.6211  0.0048 -3.8644
siesta:    6    -2291.6374    -2291.6122    -2291.6122  0.0025 -3.9153
siesta:    7    -2291.6374    -2291.6104    -2291.6104  0.0021 -3.9174
siesta:    8    -2291.6374    -2291.6108    -2291.6108  0.0011 -3.9145
siesta:    9    -2291.6373    -2291.6163    -2291.6163  0.0009 -3.9092
siesta:   10    -2291.6373    -2291.6233    -2291.6233  0.0007 -3.9061
siesta:   11    -2291.6374    -2291.6323    -2291.6323  0.0004 -3.9080
siesta:   12    -2291.6373    -2291.6343    -2291.6343  0.0003 -3.9093
siesta:   13    -2291.6373    -2291.6353    -2291.6353  0.0003 -3.9112
siesta:   14    -2291.6374    -2291.6351    -2291.6351  0.0003 -3.9113
siesta:   15    -2291.6373    -2291.6347    -2291.6347  0.0001 -3.9111
siesta:   16    -2291.6373    -2291.6349    -2291.6349  0.0001 -3.9108

siesta: E_KS(eV) =            -2291.6354

siesta: Atomic forces (eV/Ang):
----------------------------------------
   Tot    0.138732    0.028256   -0.155167
----------------------------------------
   Max    3.562078
   Res    1.193075    sqrt( Sum f_i^2 / 3N )
----------------------------------------
   Max    3.562078    constrained

Stress-tensor-Voigt (kbar):        0.62        3.23        0.05       -1.72        0.11       -0.05
(Free)E + p*V (eV/cell)    -2292.6950
Target enthalpy (eV/cell)    -2291.6354

* Maximum dynamic memory allocated =    53 MB

siesta:                 ==============================
                            Begin CG move =      2
                        ==============================

outcoor: Atomic coordinates (Ang):                          
   11.54580078    6.30645999    3.45975349   1       1  N
   10.65169117    8.39960412    3.45692475   1       2  N
    7.55923329    8.72833562    3.45640505   1       3  N
    7.50698091    6.40364885    3.46102725   1       4  N
    9.48009955    4.98083951    3.46130547   1       5  N
   11.76989316    7.67914101    3.46078203   2       6  C
    9.64673754    7.44520217    3.45755912   2       7  C
    8.23312694    7.54041746    3.45443102   2       8  C
    8.15428175    5.21937095    3.46782903   2       9  C
   10.17122082    6.13511945    3.45915619   2      10  C
   12.23594706    5.56301045    3.46908131   3      11  H
   12.78664974    8.09696696    3.47224360   3      12  H
    6.54307420    8.69053869    3.40268873   3      13  H
    8.07414577    9.60212969    3.40163866   3      14  H
    7.50072011    4.32330249    3.48606317   3      15  H

outcell: Unit cell vectors (Ang):
       13.914603    0.000000    0.000000
        0.000000   12.852339    0.000000
        0.000000    0.000000    7.295132

outcell: Cell vector modules (Ang)   :   13.914603   12.852339    7.295132
outcell: Cell angles (23,13,12) (deg):     90.0000     90.0000     90.0000
outcell: Cell volume (Ang**3)        :   1304.6264
New_DM. Step:     3
Re-using DM from previous geometry...
Re-using DM without extrapolation (not allowed)
Density Matrix sparsity pattern changed.

siesta: iscf   Eharris(eV)      E_KS(eV)   FreeEng(eV)   dDmax  Ef(eV)
siesta:    1    -2291.9350    -2292.9228    -2292.9228  0.0573 -3.7245
siesta:    2    -2291.9905    -2291.8664    -2291.8664  0.0529 -4.0446
siesta:    3    -2291.9196    -2292.1503    -2292.1503  0.0197 -3.9310
siesta:    4    -2291.9087    -2291.8934    -2291.8934  0.0033 -3.9104
siesta:    5    -2291.9082    -2291.8889    -2291.8889  0.0023 -3.8985
siesta:    6    -2291.9074    -2291.8953    -2291.8953  0.0028 -3.8623
siesta:    7    -2291.9074    -2291.9033    -2291.9033  0.0021 -3.8608
siesta:    8    -2291.9073    -2291.9129    -2291.9129  0.0009 -3.8619
siesta:    9    -2291.9073    -2291.9121    -2291.9121  0.0005 -3.8652
siesta:   10    -2291.9073    -2291.9108    -2291.9108  0.0004 -3.8660
siesta:   11    -2291.9073    -2291.9058    -2291.9058  0.0002 -3.8657
siesta:   12    -2291.9073    -2291.9055    -2291.9055  0.0002 -3.8655
siesta:   13    -2291.9073    -2291.9060    -2291.9060  0.0002 -3.8648
siesta:   14    -2291.9073    -2291.9066    -2291.9066  0.0001 -3.8647
siesta:   15    -2291.9073    -2291.9072    -2291.9072  0.0001 -3.8647

siesta: E_KS(eV) =            -2291.9074

siesta: Atomic forces (eV/Ang):
----------------------------------------
   Tot    0.132129    0.008172   -0.158624
----------------------------------------
   Max    0.355106
   Res    0.142857    sqrt( Sum f_i^2 / 3N )
----------------------------------------
   Max    0.355106    constrained

Stress-tensor-Voigt (kbar):       -1.72       -1.82        0.06       -0.45        0.02       -0.01
(Free)E + p*V (eV/cell)    -2290.9612
Target enthalpy (eV/cell)    -2291.9074

cgvc: Finished line minimization    1.  Mean atomic displacement =    0.0118

* Maximum dynamic memory allocated =    53 MB

siesta:                 ==============================
                            Begin CG move =      3
                        ==============================

outcoor: Atomic coordinates (Ang):                          
   11.54485355    6.31117076    3.45997885   1       1  N
   10.65962792    8.40854912    3.45629585   1       2  N
    7.56023515    8.72795806    3.45672763   1       3  N
    7.49470447    6.40077779    3.46022086   1       4  N
    9.48383116    4.97057341    3.46089538   1       5  N
   11.77016304    7.67841865    3.46072209   2       6  C
    9.65047588    7.44867778    3.45689252   2       7  C
    8.22669984    7.54255986    3.45423219   2       8  C
    8.15412137    5.21689588    3.46765182   2       9  C
   10.17281769    6.13114994    3.45858149   2      10  C
   12.23860889    5.56034478    3.46901813   3      11  H
   12.78856503    8.09756180    3.47176372   3      12  H
    6.54526967    8.69341960    3.40276019   3      13  H
    8.07174801    9.60260839    3.40139522   3      14  H
    7.50114697    4.32354008    3.48530203   3      15  H

outcell: Unit cell vectors (Ang):
       13.914603    0.000000    0.000000
        0.000000   12.852339    0.000000
        0.000000    0.000000    7.295132

outcell: Cell vector modules (Ang)   :   13.914603   12.852339    7.295132
outcell: Cell angles (23,13,12) (deg):     90.0000     90.0000     90.0000
outcell: Cell volume (Ang**3)        :   1304.6264
New_DM. Step:     4
Re-using DM from previous geometry...
Re-using DM without extrapolation (not allowed)
Density Matrix sparsity pattern changed.

siesta: iscf   Eharris(eV)      E_KS(eV)   FreeEng(eV)   dDmax  Ef(eV)
siesta:    1    -2291.9192    -2291.6806    -2291.6806  0.0162 -3.9808
siesta:    2    -2291.9329    -2291.9076    -2291.9076  0.0280 -3.9829
siesta:    3    -2291.9163    -2291.8149    -2291.8149  0.0082 -3.9814
siesta:    4    -2291.9154    -2291.9049    -2291.9049  0.0017 -3.9855
siesta:    5    -2291.9154    -2291.9085    -2291.9085  0.0014 -3.9856
siesta:    6    -2291.9154    -2291.9148    -2291.9148  0.0010 -3.9852
siesta:    7    -2291.9154    -2291.9127    -2291.9127  0.0007 -3.9844
siesta:    8    -2291.9154    -2291.9120    -2291.9120  0.0004 -3.9839
siesta:    9    -2291.9154    -2291.9132    -2291.9132  0.0001 -3.9839
siesta:   10    -2291.9154    -2291.9136    -2291.9136  0.0001 -3.9839

siesta: E_KS(eV) =            -2291.9154

siesta: Atomic forces (eV/Ang):
----------------------------------------
   Tot    0.167160    0.021639   -0.156461
----------------------------------------
   Max    0.261943
   Res    0.078423    sqrt( Sum f_i^2 / 3N )
----------------------------------------
   Max    0.261943    constrained

Stress-tensor-Voigt (kbar):       -0.46       -0.41        0.05       -0.32        0.01       -0.00
(Free)E + p*V (eV/cell)    -2291.6931
Target enthalpy (eV/cell)    -2291.9154

* Maximum dynamic memory allocated =    53 MB

siesta:                 ==============================
                            Begin CG move =      4
                        ==============================

outcoor: Atomic coordinates (Ang):                          
   11.54502127    6.31033662    3.45993895   1       1  N
   10.65822255    8.40696522    3.45640721   1       2  N
    7.56005775    8.72802491    3.45667051   1       3  N
    7.49687827    6.40128617    3.46036365   1       4  N
    9.48317040    4.97239124    3.46096799   1       5  N
   11.77011526    7.67854656    3.46073270   2       6  C
    9.64981393    7.44806235    3.45701055   2       7  C
    8.22783789    7.54218050    3.45426739   2       8  C
    8.15414977    5.21733414    3.46768320   2       9  C
   10.17253493    6.13185283    3.45868325   2      10  C
   12.23813756    5.56081679    3.46902932   3      11  H
   12.78822589    8.09745647    3.47184869   3      12  H
    6.54488091    8.69290948    3.40274754   3      13  H
    8.07217258    9.60252362    3.40143833   3      14  H
    7.50107139    4.32349801    3.48543681   3      15  H

outcell: Unit cell vectors (Ang):
       13.914603    0.000000    0.000000
        0.000000   12.852339    0.000000
        0.000000    0.000000    7.295132

outcell: Cell vector modules (Ang)   :   13.914603   12.852339    7.295132
outcell: Cell angles (23,13,12) (deg):     90.0000     90.0000     90.0000
outcell: Cell volume (Ang**3)        :   1304.6264
New_DM. Step:     5
Re-using DM from previous geometry...
Re-using DM without extrapolation (not allowed)

siesta: iscf   Eharris(eV)      E_KS(eV)   FreeEng(eV)   dDmax  Ef(eV)
siesta:    1    -2291.9159    -2291.9565    -2291.9565  0.0028 -3.9638
siesta:    2    -2291.9164    -2291.9156    -2291.9156  0.0050 -3.9634
siesta:    3    -2291.9159    -2291.9331    -2291.9331  0.0014 -3.9634
siesta:    4    -2291.9159    -2291.9171    -2291.9171  0.0003 -3.9627
siesta:    5    -2291.9158    -2291.9168    -2291.9168  0.0003 -3.9627
siesta:    6    -2291.9158    -2291.9164    -2291.9164  0.0001 -3.9628

siesta: E_KS(eV) =            -2291.9165

siesta: Atomic forces (eV/Ang):
----------------------------------------
   Tot    0.160727    0.021565   -0.158034
----------------------------------------
   Max    0.200107
   Res    0.058855    sqrt( Sum f_i^2 / 3N )
----------------------------------------
   Max    0.200107    constrained

Stress-tensor-Voigt (kbar):       -0.67       -0.65        0.05       -0.34        0.01       -0.01
(Free)E + p*V (eV/cell)    -2291.5751
Target enthalpy (eV/cell)    -2291.9165

cgvc: Finished line minimization    2.  Mean atomic displacement =    0.0097

* Maximum dynamic memory allocated =    53 MB

siesta:                 ==============================
                            Begin CG move =      5
                        ==============================

outcoor: Atomic coordinates (Ang):                          
   11.54925899    6.30873956    3.46034643   1       1  N
   10.66398191    8.40924974    3.45531255   1       2  N
    7.55911701    8.72671644    3.45758201   1       3  N
    7.49194642    6.39739006    3.45894481   1       4  N
    9.48215242    4.96767337    3.46025598   1       5  N
   11.77263007    7.68234176    3.46053382   2       6  C
    9.64849873    7.45444764    3.45571476   2       7  C
    8.22644767    7.53395488    3.45377520   2       8  C
    8.15776057    5.21959777    3.46685854   2       9  C
   10.17258033    6.12999664    3.45767869   2      10  C
   12.23857001    5.56213227    3.46884130   3      11  H
   12.79340413    8.09785151    3.47094917   3      12  H
    6.54465381    8.69875059    3.40278464   3      13  H
    8.07048757    9.60690619    3.40078594   3      14  H
    7.49927928    4.31945409    3.48406039   3      15  H

outcell: Unit cell vectors (Ang):
       13.914603    0.000000    0.000000
        0.000000   12.852339    0.000000
        0.000000    0.000000    7.295132

outcell: Cell vector modules (Ang)   :   13.914603   12.852339    7.295132
outcell: Cell angles (23,13,12) (deg):     90.0000     90.0000     90.0000
outcell: Cell volume (Ang**3)        :   1304.6264
New_DM. Step:     6
Re-using DM from previous geometry...
Re-using DM without extrapolation (not allowed)
Density Matrix sparsity pattern changed.

siesta: iscf   Eharris(eV)      E_KS(eV)   FreeEng(eV)   dDmax  Ef(eV)
siesta:    1    -2291.9154    -2291.7866    -2291.7866  0.0114 -3.9738
siesta:    2    -2291.9214    -2291.9100    -2291.9100  0.0168 -3.9693
siesta:    3    -2291.9140    -2291.8600    -2291.8600  0.0088 -3.9734
siesta:    4    -2291.9136    -2291.9117    -2291.9117  0.0013 -3.9816
siesta:    5    -2291.9135    -2291.9123    -2291.9123  0.0009 -3.9805
siesta:    6    -2291.9135    -2291.9137    -2291.9137  0.0004 -3.9766
siesta:    7    -2291.9135    -2291.9125    -2291.9125  0.0002 -3.9762
siesta:    8    -2291.9135    -2291.9125    -2291.9125  0.0002 -3.9763
siesta:    9    -2291.9135    -2291.9129    -2291.9129  0.0000 -3.9768

siesta: E_KS(eV) =            -2291.9131

siesta: Atomic forces (eV/Ang):
----------------------------------------
   Tot    0.169335    0.031921   -0.145508
----------------------------------------
   Max    0.373823
   Res    0.142691    sqrt( Sum f_i^2 / 3N )
----------------------------------------
   Max    0.373823    constrained

Stress-tensor-Voigt (kbar):       -0.24        0.51        0.06        0.17       -0.00       -0.01
(Free)E + p*V (eV/cell)    -2292.0027
Target enthalpy (eV/cell)    -2291.9131

* Maximum dynamic memory allocated =    53 MB

siesta:                 ==============================
                            Begin CG move =      6
                        ==============================

outcoor: Atomic coordinates (Ang):                          
   11.54661818    6.30973479    3.46009250   1       1  N
   10.66039286    8.40782610    3.45599471   1       2  N
    7.55970325    8.72753184    3.45701399   1       3  N
    7.49501979    6.39981799    3.45982898   1       4  N
    9.48278680    4.97061340    3.46069968   1       5  N
   11.77106292    7.67997671    3.46065776   2       6  C
    9.64931832    7.45046853    3.45652225   2       7  C
    8.22731401    7.53908083    3.45408192   2       8  C
    8.15551043    5.21818715    3.46737244   2       9  C
   10.17255204    6.13115335    3.45830470   2      10  C
   12.23830052    5.56131251    3.46895847   3      11  H
   12.79017722    8.09760533    3.47150972   3      12  H
    6.54479533    8.69511060    3.40276152   3      13  H
    8.07153762    9.60417512    3.40119248   3      14  H
    7.50039607    4.32197413    3.48491813   3      15  H

outcell: Unit cell vectors (Ang):
       13.914603    0.000000    0.000000
        0.000000   12.852339    0.000000
        0.000000    0.000000    7.295132

outcell: Cell vector modules (Ang)   :   13.914603   12.852339    7.295132
outcell: Cell angles (23,13,12) (deg):     90.0000     90.0000     90.0000
outcell: Cell volume (Ang**3)        :   1304.6264
New_DM. Step:     7
Re-using DM from previous geometry...
Re-using DM without extrapolation (not allowed)
Density Matrix sparsity pattern changed.

siesta: iscf   Eharris(eV)      E_KS(eV)   FreeEng(eV)   dDmax  Ef(eV)
siesta:    1    -2291.9178    -2291.9950    -2291.9950  0.0071 -3.9703
siesta:    2    -2291.9202    -2291.9157    -2291.9157  0.0104 -3.9735
siesta:    3    -2291.9173    -2291.9497    -2291.9497  0.0055 -3.9704
siesta:    4    -2291.9171    -2291.9176    -2291.9176  0.0008 -3.9655
siesta:    5    -2291.9171    -2291.9171    -2291.9171  0.0006 -3.9661
siesta:    6    -2291.9171    -2291.9171    -2291.9171  0.0002 -3.9685
siesta:    7    -2291.9171    -2291.9174    -2291.9174  0.0001 -3.9687
siesta:    8    -2291.9171    -2291.9178    -2291.9178  0.0001 -3.9687

siesta: E_KS(eV) =            -2291.9176

siesta: Atomic forces (eV/Ang):
----------------------------------------
   Tot    0.169364    0.026787   -0.153193
----------------------------------------
   Max    0.098579
   Res    0.040109    sqrt( Sum f_i^2 / 3N )
----------------------------------------
   Max    0.098579    constrained

Stress-tensor-Voigt (kbar):       -0.50       -0.22        0.05       -0.15        0.01       -0.01
(Free)E + p*V (eV/cell)    -2291.7360
Target enthalpy (eV/cell)    -2291.9176

cgvc: Finished line minimization    3.  Mean atomic displacement =    0.0037

* Maximum dynamic memory allocated =    53 MB

siesta:                 ==============================
                            Begin CG move =      7
                        ==============================

outcoor: Atomic coordinates (Ang):                          
   11.54691990    6.31016481    3.46028899   1       1  N
   10.66143518    8.40818739    3.45535989   1       2  N
    7.56024235    8.72676889    3.45756400   1       3  N
    7.49488821    6.39774693    3.45903511   1       4  N
    9.48294249    4.97089474    3.46028038   1       5  N
   11.77359212    7.68069359    3.46050939   2       6  C
    9.64976567    7.45065937    3.45574775   2       7  C
    8.22641778    7.53721623    3.45368030   2       8  C
    8.15473410    5.21651421    3.46680673   2       9  C
   10.17323818    6.13245830    3.45773368   2      10  C
   12.23935234    5.56156189    3.46885379   3      11  H
   12.79320672    8.09780778    3.47096170   3      12  H
    6.54389202    8.69853363    3.40276083   3      13  H
    8.07022842    9.60551805    3.40086230   3      14  H
    7.50033485    4.32067086    3.48404487   3      15  H

outcell: Unit cell vectors (Ang):
       13.914603    0.000000    0.000000
        0.000000   12.852339    0.000000
        0.000000    0.000000    7.295132

outcell: Cell vector modules (Ang)   :   13.914603   12.852339    7.295132
outcell: Cell angles (23,13,12) (deg):     90.0000     90.0000     90.0000
outcell: Cell volume (Ang**3)        :   1304.6264
New_DM. Step:     8
Re-using DM from previous geometry...
Re-using DM without extrapolation (not allowed)
Density Matrix sparsity pattern changed.

siesta: iscf   Eharris(eV)      E_KS(eV)   FreeEng(eV)   dDmax  Ef(eV)
siesta:    1    -2291.9184    -2291.8828    -2291.8828  0.0021 -3.9630
siesta:    2    -2291.9187    -2291.9181    -2291.9181  0.0026 -3.9606
siesta:    3    -2291.9183    -2291.9024    -2291.9024  0.0013 -3.9623
siesta:    4    -2291.9183    -2291.9170    -2291.9170  0.0004 -3.9638
siesta:    5    -2291.9183    -2291.9173    -2291.9173  0.0003 -3.9637
siesta:    6    -2291.9183    -2291.9181    -2291.9181  0.0001 -3.9629

siesta: E_KS(eV) =            -2291.9180

siesta: Atomic forces (eV/Ang):
----------------------------------------
   Tot    0.169194    0.029628   -0.145894
----------------------------------------
   Max    0.075221
   Res    0.029235    sqrt( Sum f_i^2 / 3N )
----------------------------------------
   Max    0.075221    constrained

Stress-tensor-Voigt (kbar):       -0.13       -0.11        0.06       -0.01        0.00       -0.00
(Free)E + p*V (eV/cell)    -2291.8692
Target enthalpy (eV/cell)    -2291.9180

* Maximum dynamic memory allocated =    53 MB

siesta:                 ==============================
                            Begin CG move =      8
                        ==============================

outcoor: Atomic coordinates (Ang):                          
   11.54740265    6.31085283    3.46060338   1       1  N
   10.66310287    8.40876546    3.45434418   1       2  N
    7.56110490    8.72554817    3.45844402   1       3  N
    7.49467769    6.39443323    3.45776490   1       4  N
    9.48319160    4.97134490    3.45960950   1       5  N
   11.77763884    7.68184059    3.46027200   2       6  C
    9.65048142    7.45096469    3.45450855   2       7  C
    8.22498382    7.53423287    3.45303771   2       8  C
    8.15349198    5.21383751    3.46590158   2       9  C
   10.17433600    6.13454622    3.45682005   2      10  C
   12.24103525    5.56196089    3.46868630   3      11  H
   12.79805391    8.09813169    3.47008487   3      12  H
    6.54244673    8.70401047    3.40275974   3      13  H
    8.06813371    9.60766675    3.40033402   3      14  H
    7.50023692    4.31858563    3.48264766   3      15  H

outcell: Unit cell vectors (Ang):
       13.914603    0.000000    0.000000
        0.000000   12.852339    0.000000
        0.000000    0.000000    7.295132

outcell: Cell vector modules (Ang)   :   13.914603   12.852339    7.295132
outcell: Cell angles (23,13,12) (deg):     90.0000     90.0000     90.0000
outcell: Cell volume (Ang**3)        :   1304.6264
New_DM. Step:     9
Re-using DM from previous geometry...
Re-using DM without extrapolation (not allowed)
Density Matrix sparsity pattern changed.

siesta: iscf   Eharris(eV)      E_KS(eV)   FreeEng(eV)   dDmax  Ef(eV)
siesta:    1    -2291.9185    -2291.8608    -2291.8608  0.0035 -3.9541
siesta:    2    -2291.9194    -2291.9177    -2291.9177  0.0044 -3.9516
siesta:    3    -2291.9183    -2291.8924    -2291.8924  0.0022 -3.9536
siesta:    4    -2291.9182    -2291.9160    -2291.9160  0.0006 -3.9559
siesta:    5    -2291.9182    -2291.9166    -2291.9166  0.0006 -3.9557
siesta:    6    -2291.9182    -2291.9180    -2291.9180  0.0002 -3.9544
siesta:    7    -2291.9182    -2291.9178    -2291.9178  0.0001 -3.9544

siesta: E_KS(eV) =            -2291.9176

siesta: Atomic forces (eV/Ang):
----------------------------------------
   Tot    0.168863    0.047863   -0.135496
----------------------------------------
   Max    0.154397
   Res    0.063702    sqrt( Sum f_i^2 / 3N )
----------------------------------------
   Max    0.154397    constrained

Stress-tensor-Voigt (kbar):        0.49        0.04        0.06        0.22       -0.00        0.01
(Free)E + p*V (eV/cell)    -2292.0767
Target enthalpy (eV/cell)    -2291.9176

* Maximum dynamic memory allocated =    53 MB

siesta:                 ==============================
                            Begin CG move =      9
                        ==============================

outcoor: Atomic coordinates (Ang):                          
   11.54715278    6.31049671    3.46044065   1       1  N
   10.66223967    8.40846625    3.45486991   1       2  N
    7.56065844    8.72618002    3.45798852   1       3  N
    7.49478666    6.39614841    3.45842236   1       4  N
    9.48306266    4.97111190    3.45995675   1       5  N
   11.77554425    7.68124690    3.46039487   2       6  C
    9.65011095    7.45080666    3.45514996   2       7  C
    8.22572604    7.53577706    3.45337031   2       8  C
    8.15413490    5.21522297    3.46637008   2       9  C
   10.17376777    6.13346551    3.45729294   2      10  C
   12.24016418    5.56175437    3.46877299   3      11  H
   12.79554500    8.09796403    3.47053872   3      12  H
    6.54319482    8.70117565    3.40276031   3      13  H
    8.06921793    9.60655458    3.40060746   3      14  H
    7.50028761    4.31966495    3.48337086   3      15  H

outcell: Unit cell vectors (Ang):
       13.914603    0.000000    0.000000
        0.000000   12.852339    0.000000
        0.000000    0.000000    7.295132

outcell: Cell vector modules (Ang)   :   13.914603   12.852339    7.295132
outcell: Cell angles (23,13,12) (deg):     90.0000     90.0000     90.0000
outcell: Cell volume (Ang**3)        :   1304.6264
New_DM. Step:    10
Re-using DM from previous geometry...
Re-using DM without extrapolation (not allowed)
Density Matrix sparsity pattern changed.

siesta: iscf   Eharris(eV)      E_KS(eV)   FreeEng(eV)   dDmax  Ef(eV)
siesta:    1    -2291.9186    -2291.9473    -2291.9473  0.0017 -3.9591
siesta:    2    -2291.9188    -2291.9184    -2291.9184  0.0022 -3.9613
siesta:    3    -2291.9186    -2291.9318    -2291.9318  0.0011 -3.9597
siesta:    4    -2291.9185    -2291.9196    -2291.9196  0.0003 -3.9585
siesta:    5    -2291.9185    -2291.9193    -2291.9193  0.0003 -3.9586
siesta:    6    -2291.9185    -2291.9186    -2291.9186  0.0001 -3.9592

siesta: E_KS(eV) =            -2291.9188

siesta: Atomic forces (eV/Ang):
----------------------------------------
   Tot    0.171390    0.038309   -0.140817
----------------------------------------
   Max    0.091783
   Res    0.041297    sqrt( Sum f_i^2 / 3N )
----------------------------------------
   Max    0.091783    constrained

Stress-tensor-Voigt (kbar):        0.18       -0.03        0.06        0.10        0.00        0.00
(Free)E + p*V (eV/cell)    -2291.9754
Target enthalpy (eV/cell)    -2291.9188

cgvc: Finished line minimization    4.  Mean atomic displacement =    0.0065

* Maximum dynamic memory allocated =    54 MB

siesta:                 ==============================
                            Begin CG move =     10
                        ==============================

outcoor: Atomic coordinates (Ang):                          
   11.54999420    6.31225032    3.46074057   1       1  N
   10.66441927    8.40829535    3.45359034   1       2  N
    7.55869958    8.72689314    3.45889993   1       3  N
    7.49454030    6.39397195    3.45688871   1       4  N
    9.48371837    4.97401040    3.45912387   1       5  N
   11.77741988    7.68121180    3.45997192   2       6  C
    9.65114620    7.45066629    3.45350966   2       7  C
    8.22615562    7.53493046    3.45231703   2       8  C
    8.15524579    5.21116885    3.46492325   2       9  C
   10.17374255    6.13382874    3.45620109   2      10  C
   12.24160755    5.56275339    3.46854572   3      11  H
   12.80148726    8.09821434    3.46937287   3      12  H
    6.54383219    8.70764700    3.40297058   3      13  H
    8.06639971    9.60624604    3.40007133   3      14  H
    7.50021960    4.31623700    3.48144755   3      15  H

outcell: Unit cell vectors (Ang):
       13.914603    0.000000    0.000000
        0.000000   12.852339    0.000000
        0.000000    0.000000    7.295132

outcell: Cell vector modules (Ang)   :   13.914603   12.852339    7.295132
outcell: Cell angles (23,13,12) (deg):     90.0000     90.0000     90.0000
outcell: Cell volume (Ang**3)        :   1304.6264
New_DM. Step:    11
Re-using DM from previous geometry...
Re-using DM without extrapolation (not allowed)
Density Matrix sparsity pattern changed.

siesta: iscf   Eharris(eV)      E_KS(eV)   FreeEng(eV)   dDmax  Ef(eV)
siesta:    1    -2291.9197    -2291.9079    -2291.9079  0.0073 -3.9558
siesta:    2    -2291.9218    -2291.9183    -2291.9183  0.0106 -3.9629
siesta:    3    -2291.9193    -2291.9138    -2291.9138  0.0028 -3.9573
siesta:    4    -2291.9193    -2291.9189    -2291.9189  0.0006 -3.9530
siesta:    5    -2291.9192    -2291.9189    -2291.9189  0.0005 -3.9537
siesta:    6    -2291.9193    -2291.9191    -2291.9191  0.0002 -3.9559
siesta:    7    -2291.9193    -2291.9190    -2291.9190  0.0001 -3.9559
siesta:    8    -2291.9193    -2291.9190    -2291.9190  0.0001 -3.9557

siesta: E_KS(eV) =            -2291.9192

siesta: Atomic forces (eV/Ang):
----------------------------------------
   Tot    0.178148    0.040641   -0.127776
----------------------------------------
   Max    0.100567
   Res    0.038526    sqrt( Sum f_i^2 / 3N )
----------------------------------------
   Max    0.100567    constrained

Stress-tensor-Voigt (kbar):        0.47        0.04        0.05        0.16       -0.00       -0.00
(Free)E + p*V (eV/cell)    -2292.0730
Target enthalpy (eV/cell)    -2291.9192

* Maximum dynamic memory allocated =    54 MB

siesta:                 ==============================
                            Begin CG move =     11
                        ==============================

outcoor: Atomic coordinates (Ang):                          
   11.54926580    6.31180079    3.46066369   1       1  N
   10.66386053    8.40833916    3.45391836   1       2  N
    7.55920173    8.72671033    3.45866629   1       3  N
    7.49460346    6.39452988    3.45728186   1       4  N
    9.48355028    4.97326737    3.45933738   1       5  N
   11.77693906    7.68122080    3.46008035   2       6  C
    9.65088081    7.45070227    3.45393015   2       7  C
    8.22604550    7.53514749    3.45258704   2       8  C
    8.15496101    5.21220812    3.46529415   2       9  C
   10.17374901    6.13373562    3.45648099   2      10  C
   12.24123755    5.56249729    3.46860398   3      11  H
   12.79996396    8.09815018    3.46967174   3      12  H
    6.54366880    8.70598807    3.40291667   3      13  H
    8.06712216    9.60632513    3.40020877   3      14  H
    7.50023704    4.31711575    3.48194059   3      15  H

outcell: Unit cell vectors (Ang):
       13.914603    0.000000    0.000000
        0.000000   12.852339    0.000000
        0.000000    0.000000    7.295132

outcell: Cell vector modules (Ang)   :   13.914603   12.852339    7.295132
outcell: Cell angles (23,13,12) (deg):     90.0000     90.0000     90.0000
outcell: Cell volume (Ang**3)        :   1304.6264
New_DM. Step:    12
Re-using DM from previous geometry...
Re-using DM without extrapolation (not allowed)
Density Matrix sparsity pattern changed.

siesta: iscf   Eharris(eV)      E_KS(eV)   FreeEng(eV)   dDmax  Ef(eV)
siesta:    1    -2291.9194    -2291.9221    -2291.9221  0.0018 -3.9562
siesta:    2    -2291.9195    -2291.9193    -2291.9193  0.0027 -3.9549
siesta:    3    -2291.9194    -2291.9206    -2291.9206  0.0007 -3.9560
siesta:    4    -2291.9193    -2291.9194    -2291.9194  0.0002 -3.9570
siesta:    5    -2291.9193    -2291.9194    -2291.9194  0.0001 -3.9568
siesta:    6    -2291.9193    -2291.9193    -2291.9193  0.0000 -3.9563

siesta: E_KS(eV) =            -2291.9194

siesta: Atomic forces (eV/Ang):
----------------------------------------
   Tot    0.174721    0.038271   -0.130927
----------------------------------------
   Max    0.072550
   Res    0.026423    sqrt( Sum f_i^2 / 3N )
----------------------------------------
   Max    0.072550    constrained

Stress-tensor-Voigt (kbar):        0.40        0.03        0.05        0.14       -0.00       -0.00
(Free)E + p*V (eV/cell)    -2292.0513
Target enthalpy (eV/cell)    -2291.9194

cgvc: Finished line minimization    5.  Mean atomic displacement =    0.0048

* Maximum dynamic memory allocated =    54 MB

siesta:                 ==============================
                            Begin CG move =     12
                        ==============================

outcoor: Atomic coordinates (Ang):                          
   11.55052240    6.31168019    3.46071087   1       1  N
   10.66508098    8.40782318    3.45280608   1       2  N
    7.55891851    8.72649095    3.45956384   1       3  N
    7.49598767    6.39393788    3.45602139   1       4  N
    9.48518354    4.97412313    3.45861037   1       5  N
   11.77935490    7.68200044    3.45956989   2       6  C
    9.65170561    7.45140497    3.45241199   2       7  C
    8.22573655    7.53745548    3.45140757   2       8  C
    8.15656780    5.21224397    3.46362986   2       9  C
   10.17599859    6.13419805    3.45563652   2      10  C
   12.24248884    5.56366140    3.46839428   3      11  H
   12.80183325    8.09710525    3.46855910   3      12  H
    6.54336670    8.71059045    3.40314450   3      13  H
    8.06548625    9.60454160    3.39977181   3      14  H
    7.50077800    4.31318063    3.47999639   3      15  H

outcell: Unit cell vectors (Ang):
       13.914603    0.000000    0.000000
        0.000000   12.852339    0.000000
        0.000000    0.000000    7.295132

outcell: Cell vector modules (Ang)   :   13.914603   12.852339    7.295132
outcell: Cell angles (23,13,12) (deg):     90.0000     90.0000     90.0000
outcell: Cell volume (Ang**3)        :   1304.6264
New_DM. Step:    13
Re-using DM from previous geometry...
Re-using DM without extrapolation (not allowed)
Density Matrix sparsity pattern changed.

siesta: iscf   Eharris(eV)      E_KS(eV)   FreeEng(eV)   dDmax  Ef(eV)
siesta:    1    -2291.9200    -2291.9293    -2291.9293  0.0062 -3.9565
siesta:    2    -2291.9212    -2291.9192    -2291.9192  0.0094 -3.9542
siesta:    3    -2291.9197    -2291.9248    -2291.9248  0.0023 -3.9553
siesta:    4    -2291.9198    -2291.9199    -2291.9199  0.0005 -3.9539
siesta:    5    -2291.9197    -2291.9198    -2291.9198  0.0004 -3.9541
siesta:    6    -2291.9198    -2291.9197    -2291.9197  0.0002 -3.9549
siesta:    7    -2291.9197    -2291.9198    -2291.9198  0.0001 -3.9550
siesta:    8    -2291.9197    -2291.9199    -2291.9199  0.0001 -3.9551

siesta: E_KS(eV) =            -2291.9198

siesta: Atomic forces (eV/Ang):
----------------------------------------
   Tot    0.183486    0.038043   -0.118764
----------------------------------------
   Max    0.101978
   Res    0.034257    sqrt( Sum f_i^2 / 3N )
----------------------------------------
   Max    0.101978    constrained

Stress-tensor-Voigt (kbar):        0.48        0.02        0.05        0.19        0.00       -0.00
(Free)E + p*V (eV/cell)    -2292.0706
Target enthalpy (eV/cell)    -2291.9198

* Maximum dynamic memory allocated =    54 MB

siesta:                 ==============================
                            Begin CG move =     13
                        ==============================

outcoor: Atomic coordinates (Ang):                          
   11.55019325    6.31171178    3.46069851   1       1  N
   10.66476129    8.40795834    3.45309743   1       2  N
    7.55899270    8.72654841    3.45932873   1       3  N
    7.49562509    6.39409295    3.45635156   1       4  N
    9.48475572    4.97389897    3.45880081   1       5  N
   11.77872209    7.68179622    3.45970360   2       6  C
    9.65148956    7.45122090    3.45280966   2       7  C
    8.22581748    7.53685092    3.45171652   2       8  C
    8.15614692    5.21223458    3.46406580   2       9  C
   10.17540933    6.13407692    3.45585772   2      10  C
   12.24216107    5.56335647    3.46844921   3      11  H
   12.80134361    8.09737896    3.46885054   3      12  H
    6.54344583    8.70938489    3.40308482   3      13  H
    8.06591476    9.60500878    3.39988627   3      14  H
    7.50063630    4.31421140    3.48050565   3      15  H

outcell: Unit cell vectors (Ang):
       13.914603    0.000000    0.000000
        0.000000   12.852339    0.000000
        0.000000    0.000000    7.295132

outcell: Cell vector modules (Ang)   :   13.914603   12.852339    7.295132
outcell: Cell angles (23,13,12) (deg):     90.0000     90.0000     90.0000
outcell: Cell volume (Ang**3)        :   1304.6264
New_DM. Step:    14
Re-using DM from previous geometry...
Re-using DM without extrapolation (not allowed)

siesta: iscf   Eharris(eV)      E_KS(eV)   FreeEng(eV)   dDmax  Ef(eV)
siesta:    1    -2291.9198    -2291.9173    -2291.9173  0.0016 -3.9548
siesta:    2    -2291.9199    -2291.9198    -2291.9198  0.0025 -3.9556
siesta:    3    -2291.9198    -2291.9184    -2291.9184  0.0006 -3.9552
siesta:    4    -2291.9198    -2291.9197    -2291.9197  0.0001 -3.9555
siesta:    5    -2291.9198    -2291.9198    -2291.9198  0.0001 -3.9555

siesta: E_KS(eV) =            -2291.9198

siesta: Atomic forces (eV/Ang):
----------------------------------------
   Tot    0.180257    0.039472   -0.122146
----------------------------------------
   Max    0.065361
   Res    0.024336    sqrt( Sum f_i^2 / 3N )
----------------------------------------
   Max    0.065361    constrained

Stress-tensor-Voigt (kbar):        0.46        0.03        0.05        0.18       -0.00       -0.00
(Free)E + p*V (eV/cell)    -2292.0666
Target enthalpy (eV/cell)    -2291.9198

cgvc: Finished line minimization    6.  Mean atomic displacement =    0.0036

* Maximum dynamic memory allocated =    54 MB

siesta:                 ==============================
                            Begin CG move =     14
                        ==============================

outcoor: Atomic coordinates (Ang):                          
   11.55110843    6.31230682    3.46060110   1       1  N
   10.66612477    8.40805344    3.45216682   1       2  N
    7.55786038    8.72664731    3.46014859   1       3  N
    7.49736434    6.39531261    3.45529100   1       4  N
    9.48692082    4.97357594    3.45816071   1       5  N
   11.77939545    7.68169604    3.45918417   2       6  C
    9.65199205    7.45203234    3.45153158   2       7  C
    8.22651661    7.53670826    3.45071694   2       8  C
    8.15680345    5.21213544    3.46259129   2       9  C
   10.17702134    6.13467757    3.45520520   2      10  C
   12.24365329    5.56378419    3.46827664   3      11  H
   12.80214952    8.09637085    3.46789650   3      12  H
    6.54284284    8.71233705    3.40331867   3      13  H
    8.06589156    9.60430364    3.39946474   3      14  H
    7.50268959    4.31243671    3.47868292   3      15  H

outcell: Unit cell vectors (Ang):
       13.914603    0.000000    0.000000
        0.000000   12.852339    0.000000
        0.000000    0.000000    7.295132

outcell: Cell vector modules (Ang)   :   13.914603   12.852339    7.295132
outcell: Cell angles (23,13,12) (deg):     90.0000     90.0000     90.0000
outcell: Cell volume (Ang**3)        :   1304.6264
New_DM. Step:    15
Re-using DM from previous geometry...
Re-using DM without extrapolation (not allowed)
Density Matrix sparsity pattern changed.

siesta: iscf   Eharris(eV)      E_KS(eV)   FreeEng(eV)   dDmax  Ef(eV)
siesta:    1    -2291.9203    -2291.9181    -2291.9181  0.0020 -3.9568
siesta:    2    -2291.9207    -2291.9201    -2291.9201  0.0026 -3.9741
siesta:    3    -2291.9202    -2291.9193    -2291.9193  0.0009 -3.9650
siesta:    4    -2291.9202    -2291.9202    -2291.9202  0.0003 -3.9635
siesta:    5    -2291.9202    -2291.9202    -2291.9202  0.0002 -3.9632
siesta:    6    -2291.9202    -2291.9202    -2291.9202  0.0001 -3.9625
siesta:    7    -2291.9202    -2291.9202    -2291.9202  0.0001 -3.9625

siesta: E_KS(eV) =            -2291.9202

siesta: Atomic forces (eV/Ang):
----------------------------------------
   Tot    0.186992    0.046710   -0.111235
----------------------------------------
   Max    0.066417
   Res    0.022245    sqrt( Sum f_i^2 / 3N )
----------------------------------------
   Max    0.066417    constrained

Stress-tensor-Voigt (kbar):        0.51        0.05        0.05        0.01        0.00       -0.00
(Free)E + p*V (eV/cell)    -2292.0861
Target enthalpy (eV/cell)    -2291.9202

* Maximum dynamic memory allocated =    54 MB

siesta:                 ==============================
                            Begin CG move =     15
                        ==============================

outcoor: Atomic coordinates (Ang):                          
   11.55257273    6.31325888    3.46044523   1       1  N
   10.66830633    8.40820561    3.45067784   1       2  N
    7.55604867    8.72680554    3.46146036   1       3  N
    7.50014715    6.39726408    3.45359410   1       4  N
    9.49038498    4.97305908    3.45713655   1       5  N
   11.78047283    7.68153576    3.45835309   2       6  C
    9.65279604    7.45333064    3.44948665   2       7  C
    8.22763521    7.53648001    3.44911761   2       8  C
    8.15785391    5.21197680    3.46023207   2       9  C
   10.17960056    6.13563860    3.45416116   2      10  C
   12.24604085    5.56446855    3.46800052   3      11  H
   12.80343899    8.09475786    3.46637004   3      12  H
    6.54187806    8.71706049    3.40369283   3      13  H
    8.06585444    9.60317542    3.39879029   3      14  H
    7.50597485    4.30959721    3.47576656   3      15  H

outcell: Unit cell vectors (Ang):
       13.914603    0.000000    0.000000
        0.000000   12.852339    0.000000
        0.000000    0.000000    7.295132

outcell: Cell vector modules (Ang)   :   13.914603   12.852339    7.295132
outcell: Cell angles (23,13,12) (deg):     90.0000     90.0000     90.0000
outcell: Cell volume (Ang**3)        :   1304.6264
New_DM. Step:    16
Re-using DM from previous geometry...
Re-using DM without extrapolation (not allowed)
Density Matrix sparsity pattern changed.

siesta: iscf   Eharris(eV)      E_KS(eV)   FreeEng(eV)   dDmax  Ef(eV)
siesta:    1    -2291.9199    -2291.9166    -2291.9166  0.0032 -3.9647
siesta:    2    -2291.9208    -2291.9192    -2291.9192  0.0042 -3.9933
siesta:    3    -2291.9198    -2291.9183    -2291.9183  0.0015 -3.9783
siesta:    4    -2291.9197    -2291.9195    -2291.9195  0.0005 -3.9755
siesta:    5    -2291.9197    -2291.9196    -2291.9196  0.0004 -3.9751
siesta:    6    -2291.9197    -2291.9197    -2291.9197  0.0002 -3.9740
siesta:    7    -2291.9197    -2291.9196    -2291.9196  0.0001 -3.9741
siesta:    8    -2291.9197    -2291.9196    -2291.9196  0.0001 -3.9741

siesta: E_KS(eV) =            -2291.9197

siesta: Atomic forces (eV/Ang):
----------------------------------------
   Tot    0.195748    0.047264   -0.095644
----------------------------------------
   Max    0.214047
   Res    0.063534    sqrt( Sum f_i^2 / 3N )
----------------------------------------
   Max    0.214047    constrained

Stress-tensor-Voigt (kbar):        0.58        0.07        0.05       -0.28       -0.00       -0.01
(Free)E + p*V (eV/cell)    -2292.1090
Target enthalpy (eV/cell)    -2291.9197

* Maximum dynamic memory allocated =    54 MB

siesta:                 ==============================
                            Begin CG move =     16
                        ==============================

outcoor: Atomic coordinates (Ang):                          
   11.55130318    6.31243344    3.46058037   1       1  N
   10.66641490    8.40807368    3.45196879   1       2  N
    7.55761943    8.72666835    3.46032305   1       3  N
    7.49773444    6.39557215    3.45506532   1       4  N
    9.48738154    4.97350720    3.45802450   1       5  N
   11.77953874    7.68167472    3.45907364   2       6  C
    9.65209898    7.45220501    3.45125962   2       7  C
    8.22666537    7.53667790    3.45050424   2       8  C
    8.15694316    5.21211434    3.46227753   2       9  C
   10.17736436    6.13480538    3.45506635   2      10  C
   12.24397083    5.56387521    3.46823992   3      11  H
   12.80232102    8.09615633    3.46769349   3      12  H
    6.54271453    8.71296524    3.40336843   3      13  H
    8.06588663    9.60415359    3.39937504   3      14  H
    7.50312651    4.31205907    3.47829506   3      15  H

outcell: Unit cell vectors (Ang):
       13.914603    0.000000    0.000000
        0.000000   12.852339    0.000000
        0.000000    0.000000    7.295132

outcell: Cell vector modules (Ang)   :   13.914603   12.852339    7.295132
outcell: Cell angles (23,13,12) (deg):     90.0000     90.0000     90.0000
outcell: Cell volume (Ang**3)        :   1304.6264
New_DM. Step:    17
Re-using DM from previous geometry...
Re-using DM without extrapolation (not allowed)
Density Matrix sparsity pattern changed.

siesta: iscf   Eharris(eV)      E_KS(eV)   FreeEng(eV)   dDmax  Ef(eV)
siesta:    1    -2291.9204    -2291.9227    -2291.9227  0.0027 -3.9723
siesta:    2    -2291.9211    -2291.9200    -2291.9200  0.0036 -3.9483
siesta:    3    -2291.9203    -2291.9212    -2291.9212  0.0013 -3.9607
siesta:    4    -2291.9202    -2291.9202    -2291.9202  0.0004 -3.9630
siesta:    5    -2291.9203    -2291.9202    -2291.9202  0.0003 -3.9634
siesta:    6    -2291.9203    -2291.9202    -2291.9202  0.0002 -3.9643
siesta:    7    -2291.9203    -2291.9203    -2291.9203  0.0001 -3.9642
siesta:    8    -2291.9203    -2291.9203    -2291.9203  0.0001 -3.9642

siesta: E_KS(eV) =            -2291.9203

siesta: Atomic forces (eV/Ang):
----------------------------------------
   Tot    0.187126    0.048074   -0.109373
----------------------------------------
   Max    0.066724
   Res    0.026470    sqrt( Sum f_i^2 / 3N )
----------------------------------------
   Max    0.066724    constrained

Stress-tensor-Voigt (kbar):        0.52        0.05        0.05       -0.03       -0.00       -0.01
(Free)E + p*V (eV/cell)    -2292.0881
Target enthalpy (eV/cell)    -2291.9203

cgvc: Finished line minimization    7.  Mean atomic displacement =    0.0043

* Maximum dynamic memory allocated =    54 MB

siesta:                 ==============================
                            Begin CG move =     17
                        ==============================

outcoor: Atomic coordinates (Ang):                          
   11.55326818    6.31264031    3.46033752   1       1  N
   10.66775092    8.40901224    3.45074643   1       2  N
    7.55748486    8.72667930    3.46145469   1       3  N
    7.49969675    6.39532600    3.45365480   1       4  N
    9.48922269    4.97331296    3.45716113   1       5  N
   11.78017888    7.68148346    3.45833013   2       6  C
    9.65366406    7.45287218    3.44965847   2       7  C
    8.22756341    7.53747256    3.44932600   2       8  C
    8.15900327    5.21211151    3.46039764   2       9  C
   10.17785967    6.13532585    3.45421756   2      10  C
   12.24573916    5.56454115    3.46801429   3      11  H
   12.80307996    8.09494591    3.46645390   3      12  H
    6.54114006    8.71582597    3.40364344   3      13  H
    8.06671053    9.60394805    3.39878735   3      14  H
    7.50690270    4.31140338    3.47574112   3      15  H

outcell: Unit cell vectors (Ang):
       13.914603    0.000000    0.000000
        0.000000   12.852339    0.000000
        0.000000    0.000000    7.295132

outcell: Cell vector modules (Ang)   :   13.914603   12.852339    7.295132
outcell: Cell angles (23,13,12) (deg):     90.0000     90.0000     90.0000
outcell: Cell volume (Ang**3)        :   1304.6264
New_DM. Step:    18
Re-using DM from previous geometry...
Re-using DM without extrapolation (not allowed)
Density Matrix sparsity pattern changed.

siesta: iscf   Eharris(eV)      E_KS(eV)   FreeEng(eV)   dDmax  Ef(eV)
siesta:    1    -2291.9208    -2291.9127    -2291.9127  0.0025 -3.9625
siesta:    2    -2291.9210    -2291.9207    -2291.9207  0.0025 -3.9690
siesta:    3    -2291.9208    -2291.9180    -2291.9180  0.0009 -3.9657
siesta:    4    -2291.9208    -2291.9206    -2291.9206  0.0003 -3.9647
siesta:    5    -2291.9208    -2291.9207    -2291.9207  0.0002 -3.9647
siesta:    6    -2291.9208    -2291.9207    -2291.9207  0.0001 -3.9646

siesta: E_KS(eV) =            -2291.9207

siesta: Atomic forces (eV/Ang):
----------------------------------------
   Tot    0.184490    0.048379   -0.096028
----------------------------------------
   Max    0.056213
   Res    0.021078    sqrt( Sum f_i^2 / 3N )
----------------------------------------
   Max    0.056213    constrained

Stress-tensor-Voigt (kbar):        0.58        0.07        0.05       -0.11       -0.00       -0.00
(Free)E + p*V (eV/cell)    -2292.1122
Target enthalpy (eV/cell)    -2291.9207

* Maximum dynamic memory allocated =    54 MB

siesta:                 ==============================
                            Begin CG move =     18
                        ==============================

outcoor: Atomic coordinates (Ang):                          
   11.55641217    6.31297131    3.45994897   1       1  N
   10.66988855    8.41051395    3.44879065   1       2  N
    7.55726955    8.72669681    3.46326532   1       3  N
    7.50283645    6.39493217    3.45139796   1       4  N
    9.49216853    4.97300217    3.45577973   1       5  N
   11.78120310    7.68117743    3.45714050   2       6  C
    9.65616820    7.45393964    3.44709663   2       7  C
    8.22900028    7.53874402    3.44744082   2       8  C
    8.16229945    5.21210699    3.45738982   2       9  C
   10.17865215    6.13615860    3.45285951   2      10  C
   12.24856850    5.56560666    3.46765329   3      11  H
   12.80429426    8.09300925    3.46447055   3      12  H
    6.53862092    8.72040315    3.40408344   3      13  H
    8.06802879    9.60361917    3.39784706   3      14  H
    7.51294459    4.31035426    3.47165481   3      15  H

outcell: Unit cell vectors (Ang):
       13.914603    0.000000    0.000000
        0.000000   12.852339    0.000000
        0.000000    0.000000    7.295132

outcell: Cell vector modules (Ang)   :   13.914603   12.852339    7.295132
outcell: Cell angles (23,13,12) (deg):     90.0000     90.0000     90.0000
outcell: Cell volume (Ang**3)        :   1304.6264
New_DM. Step:    19
Re-using DM from previous geometry...
Re-using DM without extrapolation (not allowed)
Density Matrix sparsity pattern changed.

siesta: iscf   Eharris(eV)      E_KS(eV)   FreeEng(eV)   dDmax  Ef(eV)
siesta:    1    -2291.9207    -2291.9078    -2291.9078  0.0041 -3.9619
siesta:    2    -2291.9211    -2291.9205    -2291.9205  0.0039 -3.9723
siesta:    3    -2291.9207    -2291.9163    -2291.9163  0.0014 -3.9672
siesta:    4    -2291.9206    -2291.9204    -2291.9204  0.0005 -3.9655
siesta:    5    -2291.9206    -2291.9205    -2291.9205  0.0003 -3.9655
siesta:    6    -2291.9206    -2291.9206    -2291.9206  0.0001 -3.9654

siesta: E_KS(eV) =            -2291.9205

siesta: Atomic forces (eV/Ang):
----------------------------------------
   Tot    0.184497    0.052440   -0.074026
----------------------------------------
   Max    0.171374
   Res    0.049712    sqrt( Sum f_i^2 / 3N )
----------------------------------------
[...]
   11.80900910    7.74206327    3.44409882   2       6  C
    9.68990301    7.47210487    3.45980971   2       7  C
    8.26545071    7.53944634    3.46630013   2       8  C
    8.22462154    5.21704486    3.43813473   2       9  C
   10.23418351    6.16486182    3.44806602   2      10  C
   12.32122436    5.64024592    3.42465788   3      11  H
   12.82574460    8.16936096    3.43669367   3      12  H
    6.59379615    8.72222548    3.38091338   3      13  H
    8.12399737    9.59703360    3.39076323   3      14  H
    7.58965093    4.30528195    3.42263787   3      15  H

outcell: Unit cell vectors (Ang):
       13.914603    0.000000    0.000000
        0.000000   12.852339    0.000000
        0.000000    0.000000    7.295132

outcell: Cell vector modules (Ang)   :   13.914603   12.852339    7.295132
outcell: Cell angles (23,13,12) (deg):     90.0000     90.0000     90.0000
outcell: Cell volume (Ang**3)        :   1304.6264
New_DM. Step:    68
Re-using DM from previous geometry...
Re-using DM without extrapolation (not allowed)
Density Matrix sparsity pattern changed.

siesta: iscf   Eharris(eV)      E_KS(eV)   FreeEng(eV)   dDmax  Ef(eV)
siesta:    1    -2291.9309    -2291.9400    -2291.9400  0.0033 -4.0033
siesta:    2    -2291.9310    -2291.9309    -2291.9309  0.0011 -3.9945
siesta:    3    -2291.9309    -2291.9332    -2291.9332  0.0004 -3.9982
siesta:    4    -2291.9309    -2291.9313    -2291.9313  0.0002 -4.0003
siesta:    5    -2291.9309    -2291.9312    -2291.9312  0.0002 -4.0004
siesta:    6    -2291.9309    -2291.9309    -2291.9309  0.0001 -4.0006

siesta: E_KS(eV) =            -2291.9309

siesta: Atomic forces (eV/Ang):
----------------------------------------
   Tot   -0.123636    0.053460   -0.050919
----------------------------------------
   Max    0.059763
   Res    0.019455    sqrt( Sum f_i^2 / 3N )
----------------------------------------
   Max    0.059763    constrained

Stress-tensor-Voigt (kbar):        0.24        0.13        0.01        0.16        0.01       -0.01
(Free)E + p*V (eV/cell)    -2292.0315
Target enthalpy (eV/cell)    -2291.9309

cgvc: Finished line minimization   27.  Mean atomic displacement =    0.0073

* Maximum dynamic memory allocated =    56 MB

siesta:                 ==============================
                            Begin CG move =     68
                        ==============================

outcoor: Atomic coordinates (Ang):                          
   11.60679287    6.37301332    3.44206641   1       1  N
   10.68243336    8.44891183    3.45483829   1       2  N
    7.60072968    8.73232450    3.51937914   1       3  N
    7.54169769    6.39048700    3.44890450   1       4  N
    9.56169300    4.99649678    3.44266348   1       5  N
   11.80799971    7.74684043    3.44399670   2       6  C
    9.68913328    7.47330101    3.45999525   2       7  C
    8.26472499    7.53876215    3.46775820   2       8  C
    8.22623270    5.21801375    3.43991169   2       9  C
   10.23459531    6.16789664    3.44944265   2      10  C
   12.32067937    5.64528258    3.42166617   3      11  H
   12.82491043    8.17558778    3.43678529   3      12  H
    6.59268857    8.72525725    3.37751214   3      13  H
    8.12596523    9.59575868    3.39087114   3      14  H
    7.59404088    4.30522183    3.42557807   3      15  H

outcell: Unit cell vectors (Ang):
       13.914603    0.000000    0.000000
        0.000000   12.852339    0.000000
        0.000000    0.000000    7.295132

outcell: Cell vector modules (Ang)   :   13.914603   12.852339    7.295132
outcell: Cell angles (23,13,12) (deg):     90.0000     90.0000     90.0000
outcell: Cell volume (Ang**3)        :   1304.6264
New_DM. Step:    69
Re-using DM from previous geometry...
Re-using DM without extrapolation (not allowed)
Density Matrix sparsity pattern changed.

siesta: iscf   Eharris(eV)      E_KS(eV)   FreeEng(eV)   dDmax  Ef(eV)
siesta:    1    -2291.9313    -2291.9222    -2291.9222  0.0072 -4.0004
siesta:    2    -2291.9316    -2291.9310    -2291.9310  0.0052 -4.0182
siesta:    3    -2291.9312    -2291.9283    -2291.9283  0.0021 -4.0100
siesta:    4    -2291.9312    -2291.9308    -2291.9308  0.0003 -4.0060
siesta:    5    -2291.9312    -2291.9309    -2291.9309  0.0003 -4.0059
siesta:    6    -2291.9312    -2291.9311    -2291.9311  0.0001 -4.0057
siesta:    7    -2291.9312    -2291.9311    -2291.9311  0.0001 -4.0058

siesta: E_KS(eV) =            -2291.9311

siesta: Atomic forces (eV/Ang):
----------------------------------------
   Tot   -0.123824    0.044695   -0.062321
----------------------------------------
   Max    0.054006
   Res    0.019246    sqrt( Sum f_i^2 / 3N )
----------------------------------------
   Max    0.054006    constrained

Stress-tensor-Voigt (kbar):        0.32        0.01        0.01        0.28        0.00       -0.01
(Free)E + p*V (eV/cell)    -2292.0219
Target enthalpy (eV/cell)    -2291.9311

* Maximum dynamic memory allocated =    56 MB

siesta:                 ==============================
                            Begin CG move =     69
                        ==============================

outcoor: Atomic coordinates (Ang):                          
   11.60666000    6.37247344    3.44208968   1       1  N
   10.68263908    8.44863923    3.45476351   1       2  N
    7.60087985    8.73234049    3.51895667   1       3  N
    7.54183382    6.39052227    3.44879090   1       4  N
    9.56148277    4.99631561    3.44254507   1       5  N
   11.80812979    7.74622480    3.44400986   2       6  C
    9.68923247    7.47314686    3.45997134   2       7  C
    8.26481851    7.53885032    3.46757030   2       8  C
    8.22602507    5.21788889    3.43968270   2       9  C
   10.23454224    6.16750555    3.44926524   2      10  C
   12.32074960    5.64463351    3.42205171   3      11  H
   12.82501792    8.17478534    3.43677349   3      12  H
    6.59283130    8.72486655    3.37795045   3      13  H
    8.12571163    9.59592298    3.39085724   3      14  H
    7.59347515    4.30522958    3.42519917   3      15  H

outcell: Unit cell vectors (Ang):
       13.914603    0.000000    0.000000
        0.000000   12.852339    0.000000
        0.000000    0.000000    7.295132

outcell: Cell vector modules (Ang)   :   13.914603   12.852339    7.295132
outcell: Cell angles (23,13,12) (deg):     90.0000     90.0000     90.0000
outcell: Cell volume (Ang**3)        :   1304.6264
New_DM. Step:    70
Re-using DM from previous geometry...
Re-using DM without extrapolation (not allowed)

siesta: iscf   Eharris(eV)      E_KS(eV)   FreeEng(eV)   dDmax  Ef(eV)
siesta:    1    -2291.9312    -2291.9322    -2291.9322  0.0009 -4.0059
siesta:    2    -2291.9312    -2291.9312    -2291.9312  0.0007 -4.0036
siesta:    3    -2291.9312    -2291.9316    -2291.9316  0.0002 -4.0048
siesta:    4    -2291.9312    -2291.9312    -2291.9312  0.0000 -4.0052

siesta: E_KS(eV) =            -2291.9312

siesta: Atomic forces (eV/Ang):
----------------------------------------
   Tot   -0.123563    0.047808   -0.060885
----------------------------------------
   Max    0.042355
   Res    0.016562    sqrt( Sum f_i^2 / 3N )
----------------------------------------
   Max    0.042355    constrained

Stress-tensor-Voigt (kbar):        0.31        0.02        0.01        0.26        0.00       -0.01
(Free)E + p*V (eV/cell)    -2292.0230
Target enthalpy (eV/cell)    -2291.9312

cgvc: Finished line minimization   28.  Mean atomic displacement =    0.0063

* Maximum dynamic memory allocated =    56 MB

siesta:                 ==============================
                            Begin CG move =     70
                        ==============================

outcoor: Atomic coordinates (Ang):                          
   11.60588412    6.37668935    3.44168791   1       1  N
   10.67995844    8.45038545    3.45475721   1       2  N
    7.59950085    8.73277078    3.52109568   1       3  N
    7.54238247    6.38983031    3.44977058   1       4  N
    9.56209823    4.99815532    3.44314666   1       5  N
   11.80800233    7.74984710    3.44369432   2       6  C
    9.68817849    7.47437253    3.45980571   2       7  C
    8.26280442    7.53879795    3.46824634   2       8  C
    8.22782146    5.21847046    3.44099819   2       9  C
   10.23549272    6.16932137    3.45013472   2      10  C
   12.31984368    5.64815846    3.41993568   3      11  H
   12.82393303    8.18083053    3.43679816   3      12  H
    6.59172365    8.72760595    3.37506516   3      13  H
    8.12638488    9.59417783    3.39087696   3      14  H
    7.59712355    4.30595046    3.42779815   3      15  H

outcell: Unit cell vectors (Ang):
       13.914603    0.000000    0.000000
        0.000000   12.852339    0.000000
        0.000000    0.000000    7.295132

outcell: Cell vector modules (Ang)   :   13.914603   12.852339    7.295132
outcell: Cell angles (23,13,12) (deg):     90.0000     90.0000     90.0000
outcell: Cell volume (Ang**3)        :   1304.6264
New_DM. Step:    71
Re-using DM from previous geometry...
Re-using DM without extrapolation (not allowed)

siesta: iscf   Eharris(eV)      E_KS(eV)   FreeEng(eV)   dDmax  Ef(eV)
siesta:    1    -2291.9315    -2291.9531    -2291.9531  0.0052 -4.0055
siesta:    2    -2291.9319    -2291.9311    -2291.9311  0.0032 -4.0002
siesta:    3    -2291.9314    -2291.9403    -2291.9403  0.0015 -4.0028
siesta:    4    -2291.9314    -2291.9320    -2291.9320  0.0003 -4.0029
siesta:    5    -2291.9314    -2291.9318    -2291.9318  0.0003 -4.0032
siesta:    6    -2291.9314    -2291.9315    -2291.9315  0.0001 -4.0038
siesta:    7    -2291.9314    -2291.9316    -2291.9316  0.0001 -4.0037

siesta: E_KS(eV) =            -2291.9317

siesta: Atomic forces (eV/Ang):
----------------------------------------
   Tot   -0.135743    0.035540   -0.069775
----------------------------------------
   Max    0.056223
   Res    0.020247    sqrt( Sum f_i^2 / 3N )
----------------------------------------
   Max    0.056223    constrained

Stress-tensor-Voigt (kbar):        0.25       -0.15        0.01        0.23        0.00       -0.01
(Free)E + p*V (eV/cell)    -2291.9638
Target enthalpy (eV/cell)    -2291.9317

* Maximum dynamic memory allocated =    56 MB

siesta:                 ==============================
                            Begin CG move =     71
                        ==============================

outcoor: Atomic coordinates (Ang):                          
   11.60607063    6.37567590    3.44178449   1       1  N
   10.68060283    8.44996569    3.45475872   1       2  N
    7.59983234    8.73266734    3.52058149   1       3  N
    7.54225058    6.38999665    3.44953508   1       4  N
    9.56195029    4.99771308    3.44300205   1       5  N
   11.80803297    7.74897635    3.44377017   2       6  C
    9.68843185    7.47407789    3.45984552   2       7  C
    8.26328858    7.53881054    3.46808383   2       8  C
    8.22738964    5.21833066    3.44068196   2       9  C
   10.23526424    6.16888487    3.44992571   2      10  C
   12.32006145    5.64731111    3.42044434   3      11  H
   12.82419382    8.17937735    3.43679223   3      12  H
    6.59198992    8.72694743    3.37575875   3      13  H
    8.12622304    9.59459734    3.39087222   3      14  H
    7.59624653    4.30577717    3.42717339   3      15  H

outcell: Unit cell vectors (Ang):
       13.914603    0.000000    0.000000
        0.000000   12.852339    0.000000
        0.000000    0.000000    7.295132

outcell: Cell vector modules (Ang)   :   13.914603   12.852339    7.295132
outcell: Cell angles (23,13,12) (deg):     90.0000     90.0000     90.0000
outcell: Cell volume (Ang**3)        :   1304.6264
New_DM. Step:    72
Re-using DM from previous geometry...
Re-using DM without extrapolation (not allowed)

siesta: iscf   Eharris(eV)      E_KS(eV)   FreeEng(eV)   dDmax  Ef(eV)
siesta:    1    -2291.9314    -2291.9264    -2291.9264  0.0012 -4.0035
siesta:    2    -2291.9314    -2291.9314    -2291.9314  0.0008 -4.0046
siesta:    3    -2291.9314    -2291.9291    -2291.9291  0.0004 -4.0041
siesta:    4    -2291.9314    -2291.9312    -2291.9312  0.0001 -4.0041

siesta: E_KS(eV) =            -2291.9312

siesta: Atomic forces (eV/Ang):
----------------------------------------
   Tot   -0.131884    0.035968   -0.067568
----------------------------------------
   Max    0.037976
   Res    0.014683    sqrt( Sum f_i^2 / 3N )
----------------------------------------
   Max    0.037976    constrained

Stress-tensor-Voigt (kbar):        0.27       -0.10        0.01        0.24        0.00       -0.00
(Free)E + p*V (eV/cell)    -2291.9788
Target enthalpy (eV/cell)    -2291.9312

* Maximum dynamic memory allocated =    56 MB

outcoor: Relaxed atomic coordinates (Ang):                  
   11.60607063    6.37567590    3.44178449   1       1  N
   10.68060283    8.44996569    3.45475872   1       2  N
    7.59983234    8.73266734    3.52058149   1       3  N
    7.54225058    6.38999665    3.44953508   1       4  N
    9.56195029    4.99771308    3.44300205   1       5  N
   11.80803297    7.74897635    3.44377017   2       6  C
    9.68843185    7.47407789    3.45984552   2       7  C
    8.26328858    7.53881054    3.46808383   2       8  C
    8.22738964    5.21833066    3.44068196   2       9  C
   10.23526424    6.16888487    3.44992571   2      10  C
   12.32006145    5.64731111    3.42044434   3      11  H
   12.82419382    8.17937735    3.43679223   3      12  H
    6.59198992    8.72694743    3.37575875   3      13  H
    8.12622304    9.59459734    3.39087222   3      14  H
    7.59624653    4.30577717    3.42717339   3      15  H

coxmol: Writing XMOL coordinates into file siesta.xyz                                                      

siesta: Program's energy decomposition (eV):
siesta: Ebs     =      -677.302433
siesta: Eions   =      3453.429722
siesta: Ena     =       641.751299
siesta: Ekin    =      1554.026236
siesta: Enl     =      -264.985063
siesta: DEna    =       -47.953376
siesta: DUscf   =         5.475436
siesta: DUext   =         0.000000
siesta: Exc     =      -726.816046
siesta: eta*DQ  =         0.000000
siesta: Emadel  =         0.000000
siesta: Emeta   =         0.000000
siesta: Emolmec =         0.000000
siesta: Ekinion =         0.000000
siesta: Eharris =     -2291.931368
siesta: Etot    =     -2291.931238
siesta: FreeEng =     -2291.931238

siesta: Final energy (eV):
siesta:  Band Struct. =    -677.302433
siesta:       Kinetic =    1554.026236
siesta:       Hartree =    4510.211208
siesta:    Ext. field =       0.000000
siesta:   Exch.-corr. =    -726.816046
siesta:  Ion-electron =  -10422.602073
siesta:       Ion-ion =    2793.249438
siesta:       Ekinion =       0.000000
siesta:         Total =   -2291.931238

siesta: Stress tensor (static) (eV/Ang**3):
siesta:     0.000168    0.000149   -0.000002
siesta:     0.000147   -0.000064    0.000002
siesta:    -0.000002    0.000002    0.000005

siesta: Cell volume =       1304.626378 Ang**3

siesta: Pressure (static):
siesta:                Solid            Molecule  Units
siesta:          -0.00000040         -0.00000041  Ry/Bohr**3
siesta:          -0.00003646         -0.00003734  eV/Ang**3
siesta:          -0.05842289         -0.05982028  kBar
(Free)E+ p_basis*V_orbitals  =       -2285.389311
(Free)Eharris+ p_basis*V_orbitals  =       -2285.389498

siesta: Electric dipole (a.u.)  =    0.756746    0.493131   -0.140483
siesta: Electric dipole (Debye) =    1.923458    1.253415   -0.357074

* Maximum dynamic memory allocated : Node    0 =    56 MB

* Maximum memory occured during poison                        

timer: CPU execution times:
timer:  Routine       Calls   Time/call    Tot.time        %
timer:  siesta            1    2880.712    2880.712   100.00
timer:  Setup             1       0.849       0.849     0.03
timer:  bands             1       0.001       0.001     0.00
timer:  writewave         1       0.001       0.001     0.00
timer:  KSV_init          1       0.000       0.000     0.00
timer:  IterMD           72      39.955    2876.732    99.86
timer:  hsparse          72       0.020       1.424     0.05
timer:  overlap          72       0.069       4.986     0.17
timer:  IterSCF         539       4.295    2315.089    80.37
timer:  kinefsm         144       0.060       8.571     0.30
timer:  nlefsm          144       0.535      76.970     2.67
timer:  DHSCF           612       4.495    2750.976    95.50
timer:  DHSCF1            1       0.107       0.107     0.00
timer:  DHSCF2           72       2.423     174.443     6.06
timer:  REORD          5042       0.002      11.670     0.41
timer:  POISON          684       0.177     121.387     4.21
timer:  DHSCF3          612       3.817    2335.815    81.08
timer:  rhoofd          612       1.555     951.850    33.04
timer:  cellXC          612       1.288     788.526    27.37
timer:  vmat            611       0.736     449.904    15.62
timer:  MolMec          144       0.000       0.001     0.00
timer:  diagon          539       0.052      27.816     0.97
timer:  r-eigvec        539       0.048      26.036     0.90
timer:  r-buildHS       539       0.000       0.144     0.00
timer:  rdiag           539       0.048      25.880     0.90
timer:  rdiag1          539       0.002       1.041     0.04
timer:  rdiag2          539       0.006       3.225     0.11
timer:  rdiag3          539       0.034      18.430     0.64
timer:  rdiag4          539       0.006       3.113     0.11
timer:  r-buildD        539       0.003       1.667     0.06
timer:  DHSCF4           72       3.294     237.161     8.23
timer:  dfscf            72       2.982     214.704     7.45
timer:  overfsm          72       0.046       3.288     0.11
timer:  optical           1       0.000       0.000     0.00
  

elaps: ELAPSED times:
elaps:  Routine       Calls   Time/call    Tot.time        %
elaps:  siesta            1    2886.002    2886.002   100.00
elaps:  Setup             1       0.892       0.892     0.03
elaps:  bands             1       0.001       0.001     0.00
elaps:  writewave         1       0.001       0.001     0.00
elaps:  KSV_init          1       0.000       0.000     0.00
elaps:  IterMD           72      40.027    2881.973    99.86
elaps:  hsparse          72       0.020       1.430     0.05
elaps:  overlap          72       0.069       5.004     0.17
elaps:  IterSCF         539       4.303    2319.384    80.37
elaps:  kinefsm         144       0.060       8.614     0.30
elaps:  nlefsm          144       0.536      77.154     2.67
elaps:  DHSCF           612       4.503    2755.774    95.49
elaps:  DHSCF1            1       0.108       0.108     0.00
elaps:  DHSCF2           72       2.427     174.768     6.06
elaps:  REORD          5042       0.002      11.774     0.41
elaps:  POISON          684       0.178     121.666     4.22
elaps:  DHSCF3          612       3.823    2339.936    81.08
elaps:  rhoofd          612       1.558     953.572    33.04
elaps:  cellXC          612       1.290     789.731    27.36
elaps:  vmat            611       0.738     450.726    15.62
elaps:  MolMec          144       0.000       0.001     0.00
elaps:  diagon          539       0.052      27.870     0.97
elaps:  r-eigvec        539       0.048      26.092     0.90
elaps:  r-buildHS       539       0.000       0.164     0.01
elaps:  rdiag           539       0.048      25.922     0.90
elaps:  rdiag1          539       0.002       1.057     0.04
elaps:  rdiag2          539       0.006       3.218     0.11
elaps:  rdiag3          539       0.034      18.482     0.64
elaps:  rdiag4          539       0.006       3.107     0.11
elaps:  r-buildD        539       0.003       1.666     0.06
elaps:  DHSCF4           72       3.299     237.493     8.23
elaps:  dfscf            72       2.986     215.001     7.45
elaps:  overfsm          72       0.046       3.292     0.11
elaps:  optical           1       0.001       0.001     0.00
  
>> End of run:  26-APR-2013  13:12:21
