Siesta Version:                                        siesta-3.2
Architecture  : x86_64-unknown-linux-gnu--unknown
Siesta Version:                                        siesta-3.2
Architecture  : x86_64-unknown-linux-gnu--unknown
Compiler flags: f95 -g -O2
SERIAL version

Compiler flags: f95 -g -O2
SERIAL version

* Running in serial mode
* Running in serial mode
>> Start of run:   9-MAY-2013  14:32:33
>> Start of run:   9-MAY-2013  14:32:33

                           ***********************       
                           *  WELCOME TO SIESTA  *       
                           ***********************       

                           ***********************       
                           *  WELCOME TO SIESTA  *       
                           ***********************       

reinit: Reading from standard input

reinit: Reading from standard input
************************** Dump of input data file ****************************
************************** Dump of input data file ****************************
************************** End of input data file *****************************
# FDF for silicon
SystemName             silicon          # Descriptive name of the system
SystemLabel            si          # Short name for naming files
NumberOfAtoms 8
NumberOfSpecies 1
%block ChemicalSpeciesLabel
1 14 Si
%endblock ChemicalSpeciesLabel
LatticeConstant  5.30 Ang
##Basis set Definition##
PAO.BasisType          split        # Type of PAO basis set
PAO.EnergyShift        50 meV
PAO.BasisSize          DZP          # (DZP) Double-z + polarization
#%block LatticeVectors
#0.500 0.500 0.000
#0.500 0.000 0.500
#0.000 0.500 0.500
#%endblock LatticeVectors
AtomicCoordinatesFormat NotScaledCartesianAng
%block AtomicCoordinatesAndAtomicSpecies
	0.00000000	0.00000000	0.00000000  1 Si  1
	1.36000000	1.36000000	1.36000000  1 Si  2
	2.72000000	2.72000000	0.00000000  1 Si  3
	4.08000000	4.08000000	1.36000000  1 Si  4
	2.72000000	0.00000000	2.72000000  1 Si  5
	4.08000000	1.36000000	4.08000000  1 Si  6
	0.00000000	2.72000000	2.72000000  1 Si  7
	1.36000000	4.08000000	4.08000000  1 Si  8
%endblock AtomicCoordinatesAndAtomicSpecies
MeshCutoff 100.0 Ry # 100, 120, 180, 260
kgrid_cutoff 30.0 Bohr # 30, 35, 40, 45
DM.Mixingweight  0.3
DM.NumberPulay    3
DM.Tolerance      1.d-3
DM.UseSaveDM      true
ElectronicTemperature 25 meV
SolutionMethod    diagon
XC.functional      GGA	    # Generalized Gradient Approximation
XC.authors        PBE          # Perdew-Burke-Ernzerhof
SpinPolarized     false
MD.TypeOfRun           CG           # Type of dynamics:
MD.VariableCell        true
MD.NumCGsteps          100          # Number of CG steps for coordinate optimization
MD.MaxCGDispl          0.2 Bohr     # Maximum atomic displacement
                                    #   in one CG step (Bohr)
MD.MaxForceTol         0.04 eV/Ang  # Tolerance in the maximum
                                    #   atomic force (Ry/Bohr)
				
##Output Specification##
WriteMDhistory         true         # Trajectory information
WriteCoorStep          true
WriteCoorXmol          true
WriteMDXmol            true
WriteEigenvalues true
WriteKbands      true
WriteBands       true
WriteWaveFunctions true
WriteMullikenPoP   1
%block BandLines
1	1.000	1.000 1.000 L
25	0.000	0.000	0.000 \Gamma
30	2.000	0.000	0.000 X
10	2.000	0.500	0.500 U
35	0.000	0.000	0.000 \Gamma
%endblock BandLines
%block WaveFuncKPoints
0.0 0.0 0.0 from 1 to 50 # > 16 = 4/2*8 (Valenzelektronen/2, Atomzahl ...)
%endblock WaveFuncKpoints
************************** End of input data file *****************************

reinit: -----------------------------------------------------------------------
reinit: System Name: silicon

reinit: -----------------------------------------------------------------------
reinit: System Name: 
reinit: -----------------------------------------------------------------------
reinit: System Label: siesta                                                      
reinit: -----------------------------------------------------------------------
reinit: -----------------------------------------------------------------------
reinit: System Label: si                                                          
reinit: -----------------------------------------------------------------------

initatom: Reading input for the pseudopotentials and atomic orbitals ----------

initatom: Reading input for the pseudopotentials and atomic orbitals ----------
 Species number:            1  Label: Si Atomic number:          14
 Species number:            1  Label: Si Atomic number:          14
Ground state valence configuration:   3s02  3p02
Reading pseudopotential information in formatted form from Si.psf
Ground state valence configuration: 
Valence configuration for pseudopotential generation:
3s( 2.00) rc: 1.75
  3s02  3p02
Reading pseudopotential information in formatted form from Si.psf
3p( 2.00) rc: 1.94
3d( 0.00) rc: 2.09
4f( 0.00) rc: 2.09

Valence configuration for pseudopotential generation:
3s( 2.00) rc: 1.75
3p( 2.00) rc: 1.94
3d( 0.00) rc: 2.09
4f( 0.00) rc: 2.09
For Si, standard SIESTA heuristics set lmxkb to 3
 (one more than the basis l, including polarization orbitals).
Use PS.lmax or PS.KBprojectors blocks to override.
For Si, standard SIESTA heuristics set lmxkb to 3
 (one more than the basis l, including polarization orbitals).
Use PS.lmax or PS.KBprojectors blocks to override.


<basis_specs>
===============================================================================
<basis_specs>
===============================================================================
Si                   Z=  14    Mass=  28.090        Charge= 0.17977+309
Si                   Z=  14    Mass=  28.090        Charge= 0.17977+309
Lmxo=1 Lmxkb= 3    BasisType=split      Semic=F
Lmxo=1 Lmxkb= 3    BasisType=split      Semic=F
L=0  Nsemic=0  Cnfigmx=3
          n=1  nzeta=2  polorb=0
L=0  Nsemic=0  Cnfigmx=3
            splnorm:   0.15000    
               vcte:    0.0000    
               rinn:    0.0000    
          n=1  nzeta=2  polorb=0
                rcs:    0.0000      0.0000    
            splnorm:   0.15000    
               vcte:    0.0000    
               rinn:    0.0000    
            lambdas:    1.0000      1.0000    
                rcs:    0.0000      0.0000    
L=1  Nsemic=0  Cnfigmx=3
          n=1  nzeta=2  polorb=1
            splnorm:   0.15000    
               vcte:    0.0000    
            lambdas:    1.0000      1.0000    
L=1  Nsemic=0  Cnfigmx=3
          n=1  nzeta=2  polorb=1
            splnorm:   0.15000    
               vcte:    0.0000    
               rinn:    0.0000    
                rcs:    0.0000      0.0000    
               rinn:    0.0000    
            lambdas:    1.0000      1.0000    
                rcs:    0.0000      0.0000    
            lambdas:    1.0000      1.0000    
-------------------------------------------------------------------------------
-------------------------------------------------------------------------------
L=0  Nkbl=1  erefs: 0.17977+309
L=0  Nkbl=1  erefs: 0.17977+309
L=1  Nkbl=1  erefs: 0.17977+309
L=1  Nkbl=1  erefs: 0.17977+309
L=2  Nkbl=1  erefs: 0.17977+309
L=2  Nkbl=1  erefs: 0.17977+309
L=3  Nkbl=1  erefs: 0.17977+309
L=3  Nkbl=1  erefs: 0.17977+309
===============================================================================
===============================================================================
</basis_specs>

</basis_specs>

atom: Called for Si                    (Z =  14)
atom: Called for Si                    (Z =  14)

read_vps: Pseudopotential generation method:
read_vps: ATM3      Troullier-Martins                       
Total valence charge:    4.00000

read_vps: Pseudopotential includes a core correction:

read_vps: Pseudopotential generation method:
read_vps: ATM3      Troullier-Martins                       
Total valence charge:    4.00000

read_vps: Pseudopotential includes a core correction:
read_vps: Pseudo-core for xc-correction
read_vps: Pseudo-core for xc-correction


xc_check: Exchange-correlation functional:
xc_check: GGA Perdew, Burke & Ernzerhof 1996
xc_check: Exchange-correlation functional:
xc_check: GGA Perdew, Burke & Ernzerhof 1996
V l=0 = -2*Zval/r beyond r=  2.0104
V l=0 = -2*Zval/r beyond r=  2.0104
V l=1 = -2*Zval/r beyond r=  2.0873
V l=2 = -2*Zval/r beyond r=  2.1670
V l=3 = -2*Zval/r beyond r=  2.1670
All V_l potentials equal beyond r=  2.0613
This should be close to max(r_c) in ps generation
All pots = -2*Zval/r beyond r=  2.1670

VLOCAL1: 99.0% of the norm of Vloc inside     10.216 Ry
VLOCAL1: 99.9% of the norm of Vloc inside     23.282 Ry
V l=1 = -2*Zval/r beyond r=  2.0873
V l=2 = -2*Zval/r beyond r=  2.1670
atom: Maximum radius for 4*pi*r*r*local-pseudopot. charge    2.45560
V l=3 = -2*Zval/r beyond r=  2.1670
All V_l potentials equal beyond r=  2.0613
This should be close to max(r_c) in ps generation
All pots = -2*Zval/r beyond r=  2.1670

VLOCAL1: 99.0% of the norm of Vloc inside     10.216 Ry
VLOCAL1: 99.9% of the norm of Vloc inside     23.282 Ry
atom: Maximum radius for 4*pi*r*r*local-pseudopot. charge    2.45560
atom: Maximum radius for r*vlocal+2*Zval:    2.14012
atom: Maximum radius for r*vlocal+2*Zval:    2.14012
GHOST: No ghost state for L =  0
GHOST: No ghost state for L =  0
GHOST: No ghost state for L =  1
GHOST: No ghost state for L =  1
GHOST: No ghost state for L =  2
GHOST: No ghost state for L =  2
GHOST: No ghost state for L =  3
GHOST: No ghost state for L =  3

KBgen: Kleinman-Bylander projectors: 

   l= 0   rc=  2.306811   el= -0.791441   Ekb=  5.289775   kbcos=  0.291595
   l= 1   rc=  2.394965   el= -0.300632   Ekb=  1.944256   kbcos=  0.287657
   l= 2   rc=  2.549439   el=  0.001958   Ekb= -1.788485   kbcos= -0.056492
   l= 3   rc=  2.782581   el=  0.003046   Ekb= -0.472620   kbcos= -0.006203
KBgen: Kleinman-Bylander projectors: 
   l= 0   rc=  2.306811   el= -0.791441   Ekb=  5.289775   kbcos=  0.291595

KBgen: Total number of  Kleinman-Bylander projectors:   16
atom: -------------------------------------------------------------------------
   l= 1   rc=  2.394965   el= -0.300632   Ekb=  1.944256   kbcos=  0.287657
   l= 2   rc=  2.549439   el=  0.001958   Ekb= -1.788485   kbcos= -0.056492
   l= 3   rc=  2.782581   el=  0.003046   Ekb= -0.472620   kbcos= -0.006203

atom: SANKEY-TYPE ORBITALS:
atom: Selected multiple-zeta basis: split     

KBgen: Total number of  Kleinman-Bylander projectors:   16
atom: -------------------------------------------------------------------------

atom: SANKEY-TYPE ORBITALS:
atom: Selected multiple-zeta basis: split     

SPLIT: Orbitals with angular momentum L= 0

SPLIT: Basis orbitals for state 3s

SPLIT: Orbitals with angular momentum L= 0

SPLIT: Basis orbitals for state 3s

SPLIT: PAO cut-off radius determined from an
SPLIT: energy shift=  0.003675 Ry

SPLIT: PAO cut-off radius determined from an
SPLIT: energy shift=  0.003675 Ry

   izeta = 1
                 lambda =    1.000000
                     rc =    6.116033

                 energy =   -0.788343
   izeta = 1
                 lambda =    1.000000
                     rc =    6.116033
                 energy =   -0.788343
                kinetic =    0.528041
    potential(screened) =   -1.316383
                kinetic =    0.528041
    potential(screened) =   -1.316383
       potential(ionic) =   -3.704743
       potential(ionic) =   -3.704743

   izeta = 2

   izeta = 2
                 rmatch =    4.530823
              splitnorm =    0.150000
                 energy =   -0.692892
                kinetic =    0.848665
    potential(screened) =   -1.541557
       potential(ionic) =   -4.044985
                 rmatch =    4.530823
              splitnorm =    0.150000
                 energy =   -0.692892
                kinetic =    0.848665
    potential(screened) =   -1.541557
       potential(ionic) =   -4.044985

SPLIT: Orbitals with angular momentum L= 1

SPLIT: Basis orbitals for state 3p

SPLIT: PAO cut-off radius determined from an
SPLIT: energy shift=  0.003675 Ry

SPLIT: Orbitals with angular momentum L= 1

SPLIT: Basis orbitals for state 3p

SPLIT: PAO cut-off radius determined from an
SPLIT: energy shift=  0.003675 Ry

   izeta = 1
                 lambda =    1.000000
                     rc =    7.853192
                 energy =   -0.297152
                kinetic =    0.797948
    potential(screened) =   -1.095101
       potential(ionic) =   -3.275753

   izeta = 1
                 lambda =    1.000000
                     rc =    7.853192
                 energy =   -0.297152

                kinetic =    0.797948
    potential(screened) =   -1.095101
       potential(ionic) =   -3.275753
   izeta = 2
                 rmatch =    5.330310
              splitnorm =    0.150000
                 energy =   -0.228170
                kinetic =    1.148579
    potential(screened) =   -1.376749
       potential(ionic) =   -3.739005

   izeta = 2
                 rmatch =    5.330310
              splitnorm =    0.150000
                 energy =   -0.228170
                kinetic =    1.148579
    potential(screened) =   -1.376749
       potential(ionic) =   -3.739005

POLgen: Perturbative polarization orbital with L=  2

POLgen: Polarization orbital for state 3p

POLgen: Perturbative polarization orbital with L=  2

POLgen: Polarization orbital for state 3p

   izeta = 1
                     rc =    7.853192
                 energy =    0.340222
                kinetic =    1.096718
    potential(screened) =   -0.756496
       potential(ionic) =   -2.716423
atom: Total number of Sankey-type orbitals: 13

   izeta = 1
                     rc =    7.853192

atm_pop: Valence configuration (for local Pseudopot. screening):
                 energy =    0.340222
                kinetic =    1.096718
    potential(screened) =   -0.756496
 3s( 2.00)                                                            
 3p( 2.00)                                                            
       potential(ionic) =   -2.716423
Vna: chval, zval:    4.00000   4.00000

Vna:  Cut-off radius for the neutral-atom potential:   7.853192
atom: Total number of Sankey-type orbitals: 13

atm_pop: Valence configuration (for local Pseudopot. screening):
 3s( 2.00)                                                            
 3p( 2.00)                                                            
Vna: chval, zval:    4.00000   4.00000
comcore: Pseudo-core radius Rcore=  2.999314

Vna:  Cut-off radius for the neutral-atom potential:   7.853192

atom: _________________________________________________________________________
comcore: Pseudo-core radius Rcore=  2.999314

prinput: Basis input ----------------------------------------------------------

PAO.BasisType split     

%block ChemicalSpeciesLabel
    1   14 Si                      # Species index, atomic number, species label
%endblock ChemicalSpeciesLabel

%block PAO.Basis                 # Define Basis set

atom: _________________________________________________________________________
Si                    2                    # Species label, number of l-shells
 n=3   0   2                         # n, l, Nzeta 

prinput: Basis input ----------------------------------------------------------

PAO.BasisType split     

%block ChemicalSpeciesLabel
   6.116      4.531   
   1.000      1.000   
    1   14 Si                      # Species index, atomic number, species label
%endblock ChemicalSpeciesLabel

%block PAO.Basis                 # Define Basis set
 n=3   1   2 P   1                   # n, l, Nzeta, Polarization, NzetaPol
   7.853      5.330   
Si                    2                    # Species label, number of l-shells
 n=3   0   2                         # n, l, Nzeta 
   6.116      4.531   
   1.000      1.000   
%endblock PAO.Basis
   1.000      1.000   
 n=3   1   2 P   1                   # n, l, Nzeta, Polarization, NzetaPol

prinput: ----------------------------------------------------------------------

   7.853      5.330   
   1.000      1.000   
%endblock PAO.Basis

prinput: ----------------------------------------------------------------------

coor:   Atomic-coordinates input format  =     Cartesian coordinates
coor:                                          (in Angstroms)

siesta: Atomic coordinates (Bohr) and species
siesta:      0.00000   0.00000   0.00000  1        1
siesta:      2.57003   2.57003   2.57003  1        2
siesta:      5.14006   5.14006   0.00000  1        3
siesta:      7.71009   7.71009   2.57003  1        4
siesta:      5.14006   0.00000   5.14006  1        5
siesta:      7.71009   2.57003   7.71009  1        6
siesta:      0.00000   5.14006   5.14006  1        7
siesta:      2.57003   7.71009   7.71009  1        8

siesta: System type = bulk      
coor:   Atomic-coordinates input format  =     Cartesian coordinates
coor:                                          (in Angstroms)

initatomlists: Number of atoms, orbitals, and projectors:      8   104   128

siesta: ******************** Simulation parameters ****************************
siesta:
siesta: The following are some of the parameters of the simulation.
siesta: A complete list of the parameters used, including default values,
siesta: can be found in file out.fdf
siesta:
redata: Non-Collinear-spin run           =     F
redata: SpinPolarized (Up/Down) run      =     F
redata: Number of spin components        =     1
redata: Long output                      =     F
redata: Number of Atomic Species         =        1
redata: Charge density info will appear in .RHO file
redata: Write Mulliken Pop.              =     Atomic and Orbital charges
redata: Mesh Cutoff                      =   100.0000  Ry
redata: Net charge of the system         =     0.0000 |e|
redata: Max. number of SCF Iter          =       50
redata: Performing Pulay mixing using    =     3 iterations
redata: Mix DM in first SCF step ?       =     F
redata: Write Pulay info on disk?        =     F
redata: Discard 1st Pulay DM after  kick =     F
redata: New DM Mixing Weight             =     0.3000
redata: New DM Occupancy tolerance       = 0.000000000001
redata: No kicks to SCF
redata: DM Mixing Weight for Kicks       =     0.5000
redata: DM Tolerance for SCF             =     0.001000
redata: Require Energy convergence for SCF =     F
redata: DM Energy tolerance for SCF      =     0.000100 eV
redata: Require Harris convergence for SCF =     F
redata: DM Harris energy tolerance for SCF =     0.000100 eV
redata: Using Saved Data (generic)   =     F
redata: Use continuation files for DM    =     T
redata: Neglect nonoverlap interactions  =     F
redata: Method of Calculation            =     Diagonalization
redata: Divide and Conquer               =     T

siesta: Atomic coordinates (Bohr) and species
siesta:      0.00000   0.00000   0.00000  1        1
siesta:      2.57003   2.57003   2.57003  1        2
siesta:      5.14006   5.14006   0.00000  1        3
siesta:      7.71009   7.71009   2.57003  1        4
siesta:      5.14006   0.00000   5.14006  1        5
siesta:      7.71009   2.57003   7.71009  1        6
siesta:      0.00000   5.14006   5.14006  1        7
siesta:      2.57003   7.71009   7.71009  1        8

siesta: System type = bulk      
redata: Electronic Temperature           =     0.0018  Ry
redata: Fix the spin of the system       =     F

initatomlists: Number of atoms, orbitals, and projectors:      8   104   128

siesta: ******************** Simulation parameters ****************************
siesta:
siesta: The following are some of the parameters of the simulation.
siesta: A complete list of the parameters used, including default values,
siesta: can be found in file out.fdf
siesta:
redata: Non-Collinear-spin run           =     F
redata: SpinPolarized (Up/Down) run      =     F
redata: Number of spin components        =     1
redata: Dynamics option                  =     CG coord. optimization
redata: Variable cell                    =     T
redata: Use continuation files for CG    =     F
redata: Max atomic displ per move        =     0.2000  Bohr
redata: Maximum number of CG moves       =      100
redata: Force tolerance                  =     0.0016  Ry/Bohr
redata: Stress tolerance                 =     1.0000  GPa
redata: Long output                      =     F
redata: Number of Atomic Species         =        1
redata: Charge density info will appear in .RHO file
redata: Write Mulliken Pop.              =     Atomic and Orbital charges
redata: Mesh Cutoff                      =   100.0000  Ry
redata: Net charge of the system         =     0.0000 |e|
redata: Max. number of SCF Iter          =       50
redata: ***********************************************************************
redata: Performing Pulay mixing using    =     3 iterations
redata: Mix DM in first SCF step ?       =     F
Total number of electrons:    32.000000
Total ionic charge:    32.000000
redata: Write Pulay info on disk?        =     F
redata: Discard 1st Pulay DM after  kick =     F
redata: New DM Mixing Weight             =     0.3000
redata: New DM Occupancy tolerance       = 0.000000000001
redata: No kicks to SCF
redata: DM Mixing Weight for Kicks       =     0.5000
redata: DM Tolerance for SCF             =     0.001000
 Kpoints in:          108 . Kpoints trimmed:          108
redata: Require Energy convergence for SCF =     F
redata: DM Energy tolerance for SCF      =     0.000100 eV
redata: Require Harris convergence for SCF =     F
redata: DM Harris energy tolerance for SCF =     0.000100 eV

siesta: k-grid: Number of k-points =   108
redata: Using Saved Data (generic)   =     F
siesta: k-grid: Cutoff (effective) =    15.900 Ang
siesta: k-grid: Supercell and displacements
siesta: k-grid:    0   6   0      0.500
siesta: k-grid:    0   0   6      0.500
siesta: k-grid:    6   0   0      0.500
redata: Use continuation files for DM    =     T
redata: Neglect nonoverlap interactions  =     F
redata: Method of Calculation            =     Diagonalization
redata: Divide and Conquer               =     T
redata: Electronic Temperature           =     0.0018  Ry
redata: Fix the spin of the system       =     F
redata: Dynamics option                  =     CG coord. optimization
redata: Variable cell                    =     T
redata: Use continuation files for CG    =     F
redata: Max atomic displ per move        =     0.2000  Bohr
redata: Maximum number of CG moves       =      100
redata: Force tolerance                  =     0.0016  Ry/Bohr
redata: Stress tolerance                 =     1.0000  GPa
Naive supercell factors:     5    5    5

superc: Internal auxiliary supercell:     5 x     5 x     5  =     125
superc: Number of atoms, orbitals, and projectors:   1000  13000  16000

* Maximum dynamic memory allocated =     1 MB

siesta:                 ==============================
                            Begin CG move =      0
                        ==============================

outcoor: Atomic coordinates (Ang):                          
    0.00000000    0.00000000    0.00000000   1       1  Si
    1.36000000    1.36000000    1.36000000   1       2  Si
    2.72000000    2.72000000    0.00000000   1       3  Si
    4.08000000    4.08000000    1.36000000   1       4  Si
    2.72000000    0.00000000    2.72000000   1       5  Si
    4.08000000    1.36000000    4.08000000   1       6  Si
    0.00000000    2.72000000    2.72000000   1       7  Si
    1.36000000    4.08000000    4.08000000   1       8  Si

superc: Internal auxiliary supercell:     5 x     5 x     5  =     125
superc: Number of atoms, orbitals, and projectors:   1000  13000  16000

outcell: Unit cell vectors (Ang):
        5.300000    0.000000    0.000000
        0.000000    5.300000    0.000000
        0.000000    0.000000    5.300000

outcell: Cell vector modules (Ang)   :    5.300000    5.300000    5.300000
outcell: Cell angles (23,13,12) (deg):     90.0000     90.0000     90.0000
outcell: Cell volume (Ang**3)        :    148.8770
redata: ***********************************************************************
Total number of electrons:    32.000000
Total ionic charge:    32.000000
 Kpoints in:          108 . Kpoints trimmed:          108

siesta: k-grid: Number of k-points =   108
siesta: k-grid: Cutoff (effective) =    15.900 Ang
siesta: k-grid: Supercell and displacements
siesta: k-grid:    0   6   0      0.500
siesta: k-grid:    0   0   6      0.500
siesta: k-grid:    6   0   0      0.500
Naive supercell factors:     5    5    5

superc: Internal auxiliary supercell:     5 x     5 x     5  =     125
superc: Number of atoms, orbitals, and projectors:   1000  13000  16000

* Maximum dynamic memory allocated =     1 MB

siesta:                 ==============================
                            Begin CG move =      0
                        ==============================

outcoor: Atomic coordinates (Ang):                          
    0.00000000    0.00000000    0.00000000   1       1  Si
    1.36000000    1.36000000    1.36000000   1       2  Si
    2.72000000    2.72000000    0.00000000   1       3  Si
    4.08000000    4.08000000    1.36000000   1       4  Si
    2.72000000    0.00000000    2.72000000   1       5  Si
    4.08000000    1.36000000    4.08000000   1       6  Si
    0.00000000    2.72000000    2.72000000   1       7  Si
    1.36000000    4.08000000    4.08000000   1       8  Si

superc: Internal auxiliary supercell:     5 x     5 x     5  =     125
superc: Number of atoms, orbitals, and projectors:   1000  13000  16000

outcell: Unit cell vectors (Ang):
        5.300000    0.000000    0.000000
        0.000000    5.300000    0.000000
        0.000000    0.000000    5.300000

outcell: Cell vector modules (Ang)   :    5.300000    5.300000    5.300000
outcell: Cell angles (23,13,12) (deg):     90.0000     90.0000     90.0000
outcell: Cell volume (Ang**3)        :    148.8770
New_DM. Step:     1
Initializing Density Matrix...
New_DM. Step:     1
Initializing Density Matrix...

InitMesh: MESH =    32 x    32 x    32 =       32768
InitMesh: Mesh cutoff (required, used) =   100.000   100.751 Ry

InitMesh: MESH =    32 x    32 x    32 =       32768
InitMesh: Mesh cutoff (required, used) =   100.000   100.751 Ry

* Maximum dynamic memory allocated =    65 MB

* Maximum dynamic memory allocated =    65 MB

stepf: Fermi-Dirac step function

stepf: Fermi-Dirac step function

siesta: Program's energy decomposition (eV):
siesta: Ebs     =      -359.053457
siesta: Eions   =      1510.441798
siesta: Ena     =       463.570133
siesta: Ekin    =       288.667622
siesta: Enl     =       158.241721
siesta: DEna    =         0.000001
siesta: DUscf   =         0.000000
siesta: DUext   =         0.000000
siesta: Exc     =      -449.676234
siesta: eta*DQ  =         0.000000
siesta: Emadel  =         0.000000
siesta: Emeta   =         0.000000
siesta: Emolmec =         0.000000
siesta: Ekinion =         0.000000
siesta: Eharris =     -1029.876516
siesta: Etot    =     -1049.638555
siesta: FreeEng =     -1049.638555

siesta: iscf   Eharris(eV)      E_KS(eV)   FreeEng(eV)   dDmax  Ef(eV)
siesta:    1    -1029.8765    -1049.6386    -1049.6386  1.7243 -5.5015
timer: Routine,Calls,Time,% = IterSCF        1      18.281  96.62
elaps: Routine,Calls,Wall,% = IterSCF        1      18.364  96.56

siesta: Program's energy decomposition (eV):
siesta: Ebs     =      -359.053457
siesta: Eions   =      1510.441798
siesta: Ena     =       463.570133
siesta: Ekin    =       288.667622
siesta: Enl     =       158.241721
siesta: DEna    =         0.000001
siesta: DUscf   =         0.000000
siesta: DUext   =         0.000000
siesta: Exc     =      -449.676234
siesta: eta*DQ  =         0.000000
siesta: Emadel  =         0.000000
siesta: Emeta   =         0.000000
siesta: Emolmec =         0.000000
siesta: Ekinion =         0.000000
siesta: Eharris =     -1029.876516
siesta: Etot    =     -1049.638555
siesta: FreeEng =     -1049.638555

siesta: iscf   Eharris(eV)      E_KS(eV)   FreeEng(eV)   dDmax  Ef(eV)
siesta:    1    -1029.8765    -1049.6386    -1049.6386  1.7243 -5.5015
timer: Routine,Calls,Time,% = IterSCF        1      18.313  96.58
elaps: Routine,Calls,Wall,% = IterSCF        1      18.395  96.47
siesta:    2    -1029.5538    -1029.4640    -1029.4640  0.1224 -5.1832
siesta:    2    -1029.5538    -1029.4640    -1029.4640  0.1224 -5.1832
siesta:    3    -1029.5389    -1030.3404    -1030.3405  0.0616 -5.2167
siesta:    3    -1029.5389    -1030.3404    -1030.3405  0.0616 -5.2167
siesta:    4    -1029.5360    -1029.5895    -1029.5895  0.0084 -5.2320
siesta:    4    -1029.5360    -1029.5895    -1029.5895  0.0084 -5.2320
siesta:    5    -1029.5359    -1029.5660    -1029.5660  0.0052 -5.2325
siesta:    5    -1029.5359    -1029.5660    -1029.5660  0.0052 -5.2325
siesta:    6    -1029.5358    -1029.5375    -1029.5375  0.0009 -5.2332
siesta:    6    -1029.5358    -1029.5375    -1029.5375  0.0009 -5.2332

siesta: E_KS(eV) =            -1029.5363

siesta: E_KS - E_eggbox =     -1029.5363

siesta: Atomic forces (eV/Ang):
----------------------------------------
   Tot   -0.014961   -0.014964   -0.014928
----------------------------------------
   Max    1.343809
   Res    0.927805    sqrt( Sum f_i^2 / 3N )
----------------------------------------
   Max    1.343809    constrained

Stress-tensor-Voigt (kbar):     -139.30     -139.30     -139.30       24.22       24.22       24.22
(Free)E + p*V (eV/cell)    -1016.5926
Target enthalpy (eV/cell)    -1029.5363

siesta: Stress tensor (static) (eV/Ang**3):
        -0.086942    0.015116    0.015116
         0.015116   -0.086942    0.015116
         0.015116    0.015116   -0.086942

siesta: Pressure (static):        139.29810189  kBar

siesta: Stress tensor (total) (eV/Ang**3):
        -0.086942    0.015116    0.015116
         0.015116   -0.086942    0.015116
         0.015116    0.015116   -0.086942

siesta: Pressure (total):        139.29810189  kBar

mulliken: Mulliken Atomic and Orbital Populations:

Species: Si                  
Atom  Qatom  Qorb
               3s      3s      3py     3pz     3px     3py     3pz     3px     
               3Pdxy   3Pdyz   3Pdz2   3Pdxz   3Pdx2-y2
   1  4.055   0.460   0.669   0.130   0.130   0.130   0.634   0.634   0.634
              0.147   0.147   0.097   0.147   0.097
   2  3.968   0.625   0.580   0.164   0.164   0.164   0.578   0.578   0.578
              0.128   0.128   0.076   0.128   0.076
   3  3.982   0.568   0.609   0.132   0.184   0.132   0.608   0.574   0.608
              0.137   0.132   0.078   0.132   0.087
   4  4.011   0.512   0.639   0.156   0.103   0.156   0.604   0.637   0.604
              0.137   0.142   0.094   0.142   0.084
   5  3.982   0.568   0.609   0.184   0.132   0.132   0.574   0.608   0.608
              0.132   0.132   0.085   0.137   0.080
   6  4.011   0.512   0.639   0.103   0.156   0.156   0.637   0.604   0.604
              0.142   0.142   0.087   0.137   0.092
   7  3.982   0.568   0.609   0.132   0.132   0.184   0.608   0.608   0.574
              0.132   0.137   0.085   0.132   0.080
   8  4.011   0.512   0.639   0.156   0.156   0.103   0.604   0.604   0.637
              0.142   0.137   0.087   0.142   0.092

mulliken: Qtot =       32.000

cgvc: No target stress found, assuming hydrostatic MD.TargetPressure.

cgvc: Target stress (kBar)
cgvc:        -0.000       0.000       0.000
cgvc:         0.000      -0.000       0.000
cgvc:         0.000       0.000      -0.000

* Maximum dynamic memory allocated =    66 MB

siesta:                 ==============================
                            Begin CG move =      1
                        ==============================

outcoor: Atomic coordinates (Ang):                          
    0.02110123    0.02110119    0.02110125   1       1  Si
    1.37001985    1.37001987    1.37001997   1       2  Si
    2.73644938    2.73644939    0.01183979   1       3  Si
    4.08442446    4.08442449    1.36573009   1       4  Si
    2.73644950    0.01183999    2.73644959   1       5  Si
    4.08442442    1.36573004    4.08442470   1       6  Si
    0.01184005    2.73644947    2.73644960   1       7  Si
    1.36573008    4.08442441    4.08442472   1       8  Si
 Kpoints in:          108 . Kpoints trimmed:          108

siesta: k-grid: Number of k-points =   108
siesta: k-grid: Cutoff (effective) =    16.035 Ang
siesta: k-grid: Supercell and displacements
siesta: k-grid:    6   0   0      0.500
siesta: k-grid:    0   6   0      0.500
siesta: k-grid:    0   0   6      0.500
Naive supercell factors:     5    5    5

superc: Internal auxiliary supercell:     5 x     5 x     5  =     125
superc: Number of atoms, orbitals, and projectors:   1000  13000  16000

outcell: Unit cell vectors (Ang):
        5.345151   -0.007850   -0.007850
       -0.007850    5.345151   -0.007850
       -0.007850   -0.007850    5.345151

outcell: Cell vector modules (Ang)   :    5.345163    5.345163    5.345163
outcell: Cell angles (23,13,12) (deg):     90.1682     90.1682     90.1682
outcell: Cell volume (Ang**3)        :    152.7134

siesta: E_KS(eV) =            -1029.5363

siesta: E_KS - E_eggbox =     -1029.5363

siesta: Atomic forces (eV/Ang):
----------------------------------------
   Tot   -0.014961   -0.014964   -0.014928
----------------------------------------
   Max    1.343809
   Res    0.927805    sqrt( Sum f_i^2 / 3N )
----------------------------------------
   Max    1.343809    constrained

Stress-tensor-Voigt (kbar):     -139.30     -139.30     -139.30       24.22       24.22       24.22
(Free)E + p*V (eV/cell)    -1016.5926
Target enthalpy (eV/cell)    -1029.5363

siesta: Stress tensor (static) (eV/Ang**3):
        -0.086942    0.015116    0.015116
         0.015116   -0.086942    0.015116
         0.015116    0.015116   -0.086942

siesta: Pressure (static):        139.29810189  kBar

siesta: Stress tensor (total) (eV/Ang**3):
        -0.086942    0.015116    0.015116
         0.015116   -0.086942    0.015116
         0.015116    0.015116   -0.086942

siesta: Pressure (total):        139.29810189  kBar

mulliken: Mulliken Atomic and Orbital Populations:

Species: Si                  
Atom  Qatom  Qorb
               3s      3s      3py     3pz     3px     3py     3pz     3px     
               3Pdxy   3Pdyz   3Pdz2   3Pdxz   3Pdx2-y2
   1  4.055   0.460   0.669   0.130   0.130   0.130   0.634   0.634   0.634
              0.147   0.147   0.097   0.147   0.097
   2  3.968   0.625   0.580   0.164   0.164   0.164   0.578   0.578   0.578
              0.128   0.128   0.076   0.128   0.076
   3  3.982   0.568   0.609   0.132   0.184   0.132   0.608   0.574   0.608
              0.137   0.132   0.078   0.132   0.087
   4  4.011   0.512   0.639   0.156   0.103   0.156   0.604   0.637   0.604
              0.137   0.142   0.094   0.142   0.084
   5  3.982   0.568   0.609   0.184   0.132   0.132   0.574   0.608   0.608
              0.132   0.132   0.085   0.137   0.080
   6  4.011   0.512   0.639   0.103   0.156   0.156   0.637   0.604   0.604
              0.142   0.142   0.087   0.137   0.092
   7  3.982   0.568   0.609   0.132   0.132   0.184   0.608   0.608   0.574
              0.132   0.137   0.085   0.132   0.080
   8  4.011   0.512   0.639   0.156   0.156   0.103   0.604   0.604   0.637
              0.142   0.137   0.087   0.142   0.092

mulliken: Qtot =       32.000

cgvc: No target stress found, assuming hydrostatic MD.TargetPressure.

cgvc: Target stress (kBar)
cgvc:        -0.000       0.000       0.000
cgvc:         0.000      -0.000       0.000
cgvc:         0.000       0.000      -0.000

* Maximum dynamic memory allocated =    66 MB

siesta:                 ==============================
                            Begin CG move =      1
                        ==============================

outcoor: Atomic coordinates (Ang):                          
    0.02110123    0.02110119    0.02110125   1       1  Si
    1.37001985    1.37001987    1.37001997   1       2  Si
    2.73644938    2.73644939    0.01183979   1       3  Si
    4.08442446    4.08442449    1.36573009   1       4  Si
    2.73644950    0.01183999    2.73644959   1       5  Si
    4.08442442    1.36573004    4.08442470   1       6  Si
    0.01184005    2.73644947    2.73644960   1       7  Si
    1.36573008    4.08442441    4.08442472   1       8  Si
 Kpoints in:          108 . Kpoints trimmed:          108

siesta: k-grid: Number of k-points =   108
siesta: k-grid: Cutoff (effective) =    16.035 Ang
siesta: k-grid: Supercell and displacements
siesta: k-grid:    6   0   0      0.500
siesta: k-grid:    0   6   0      0.500
siesta: k-grid:    0   0   6      0.500
Naive supercell factors:     5    5    5

superc: Internal auxiliary supercell:     5 x     5 x     5  =     125
superc: Number of atoms, orbitals, and projectors:   1000  13000  16000

outcell: Unit cell vectors (Ang):
        5.345151   -0.007850   -0.007850
       -0.007850    5.345151   -0.007850
       -0.007850   -0.007850    5.345151

outcell: Cell vector modules (Ang)   :    5.345163    5.345163    5.345163
outcell: Cell angles (23,13,12) (deg):     90.1682     90.1682     90.1682
outcell: Cell volume (Ang**3)        :    152.7134
New_DM. Step:     2
Re-using DM from previous geometry...
Re-using DM without extrapolation (not allowed)
Density Matrix sparsity pattern changed.
New_DM. Step:     2
Re-using DM from previous geometry...
Re-using DM without extrapolation (not allowed)
Density Matrix sparsity pattern changed.

InitMesh: MESH =    36 x    36 x    36 =       46656
InitMesh: Mesh cutoff (required, used) =   100.000   125.370 Ry

InitMesh: MESH =    36 x    36 x    36 =       46656
InitMesh: Mesh cutoff (required, used) =   100.000   125.370 Ry

siesta: iscf   Eharris(eV)      E_KS(eV)   FreeEng(eV)   dDmax  Ef(eV)
siesta:    1    -1030.1032    -1029.1058    -1029.1058  0.0318 -5.2011

siesta: iscf   Eharris(eV)      E_KS(eV)   FreeEng(eV)   dDmax  Ef(eV)
siesta:    1    -1030.1032    -1029.1058    -1029.1058  0.0318 -5.2011
siesta:    2    -1030.1482    -1030.0574    -1030.0574  0.0314 -5.1821
siesta:    2    -1030.1482    -1030.0574    -1030.0574  0.0314 -5.1821
siesta:    3    -1030.0881    -1029.9378    -1029.9378  0.0078 -5.1971
siesta:    3    -1030.0881    -1029.9378    -1029.9378  0.0078 -5.1971
siesta:    4    -1030.0878    -1030.0749    -1030.0749  0.0005 -5.1993
siesta:    4    -1030.0878    -1030.0749    -1030.0749  0.0005 -5.1993

siesta: E_KS(eV) =            -1030.0787

siesta: Atomic forces (eV/Ang):
----------------------------------------
   Tot    0.003750    0.003753    0.003746
----------------------------------------
   Max    0.709594
   Res    0.516383    sqrt( Sum f_i^2 / 3N )
----------------------------------------
   Max    0.709594    constrained

Stress-tensor-Voigt (kbar):     -102.21     -102.21     -102.21        7.18        7.18        7.18
(Free)E + p*V (eV/cell)    -1020.3370
Target enthalpy (eV/cell)    -1030.0787

siesta: Stress tensor (static) (eV/Ang**3):
        -0.063791    0.004480    0.004480
         0.004480   -0.063791    0.004480
         0.004480    0.004480   -0.063791

siesta: Pressure (static):        102.20577531  kBar

siesta: Stress tensor (total) (eV/Ang**3):
        -0.063791    0.004480    0.004480
         0.004480   -0.063791    0.004480
         0.004480    0.004480   -0.063791

siesta: Pressure (total):        102.20577531  kBar

mulliken: Mulliken Atomic and Orbital Populations:

Species: Si                  
Atom  Qatom  Qorb
               3s      3s      3py     3pz     3px     3py     3pz     3px     
               3Pdxy   3Pdyz   3Pdz2   3Pdxz   3Pdx2-y2
   1  4.021   0.513   0.638   0.154   0.154   0.154   0.605   0.605   0.605
              0.139   0.139   0.088   0.139   0.088
   2  3.983   0.618   0.583   0.183   0.183   0.183   0.567   0.567   0.567
              0.127   0.127   0.076   0.127   0.076
   3  3.993   0.579   0.603   0.161   0.192   0.161   0.587   0.568   0.587
              0.133   0.130   0.077   0.130   0.083
   4  4.006   0.545   0.621   0.172   0.138   0.172   0.587   0.609   0.587
              0.133   0.136   0.087   0.136   0.081
   5  3.993   0.579   0.603   0.192   0.161   0.161   0.568   0.587   0.587
              0.130   0.130   0.081   0.133   0.079
   6  4.006   0.545   0.621   0.138   0.172   0.172   0.609   0.587   0.587
              0.136   0.136   0.083   0.133   0.086
   7  3.993   0.579   0.603   0.161   0.161   0.192   0.587   0.587   0.568
              0.130   0.133   0.081   0.130   0.079
   8  4.006   0.545   0.621   0.172   0.172   0.138   0.587   0.587   0.609
              0.136   0.133   0.083   0.136   0.086

mulliken: Qtot =       32.000

* Maximum dynamic memory allocated =    79 MB

siesta:                 ==============================
                            Begin CG move =      2
                        ==============================

outcoor: Atomic coordinates (Ang):                          
    0.05534828    0.05534818    0.05534834   1       1  Si
    1.38610823    1.38610827    1.38610855   1       2  Si
    2.76256939    2.76256942    0.03151498   1       3  Si
    4.09081857    4.09081865    1.37538736   1       4  Si
    2.76256972    0.03151551    2.76256994   1       5  Si
    4.09081845    1.37538723    4.09081918   1       6  Si
    0.03151566    2.76256965    2.76256996   1       7  Si
    1.37538734    4.09081843    4.09081924   1       8  Si
 Kpoints in:          108 . Kpoints trimmed:          108

siesta: k-grid: Number of k-points =   108
siesta: k-grid: Cutoff (effective) =    16.252 Ang
siesta: k-grid: Supercell and displacements
siesta: k-grid:    6   0   0      0.500
siesta: k-grid:    0   6   0      0.500
siesta: k-grid:    0   0   6      0.500
Naive supercell factors:     5    5    5

superc: Internal auxiliary supercell:     5 x     5 x     5  =     125
superc: Number of atoms, orbitals, and projectors:   1000  13000  16000

outcell: Unit cell vectors (Ang):
        5.417393   -0.020410   -0.020411
       -0.020410    5.417393   -0.020411
       -0.020411   -0.020411    5.417394

outcell: Cell vector modules (Ang)   :    5.417470    5.417470    5.417471
outcell: Cell angles (23,13,12) (deg):     90.4309     90.4309     90.4309
outcell: Cell volume (Ang**3)        :    158.9837
New_DM. Step:     3
Re-using DM from previous geometry...
Re-using DM without extrapolation (not allowed)

siesta: E_KS(eV) =            -1030.0787

siesta: Atomic forces (eV/Ang):
----------------------------------------
   Tot    0.003750    0.003753    0.003746
----------------------------------------
   Max    0.709594
   Res    0.516383    sqrt( Sum f_i^2 / 3N )
----------------------------------------
   Max    0.709594    constrained

Stress-tensor-Voigt (kbar):     -102.21     -102.21     -102.21        7.18        7.18        7.18
(Free)E + p*V (eV/cell)    -1020.3370
Target enthalpy (eV/cell)    -1030.0787

siesta: Stress tensor (static) (eV/Ang**3):
        -0.063791    0.004480    0.004480
         0.004480   -0.063791    0.004480
         0.004480    0.004480   -0.063791

siesta: Pressure (static):        102.20577531  kBar

siesta: Stress tensor (total) (eV/Ang**3):
        -0.063791    0.004480    0.004480
         0.004480   -0.063791    0.004480
         0.004480    0.004480   -0.063791

siesta: Pressure (total):        102.20577531  kBar

mulliken: Mulliken Atomic and Orbital Populations:

Species: Si                  
Atom  Qatom  Qorb
               3s      3s      3py     3pz     3px     3py     3pz     3px     
               3Pdxy   3Pdyz   3Pdz2   3Pdxz   3Pdx2-y2
   1  4.021   0.513   0.638   0.154   0.154   0.154   0.605   0.605   0.605
              0.139   0.139   0.088   0.139   0.088
   2  3.983   0.618   0.583   0.183   0.183   0.183   0.567   0.567   0.567
              0.127   0.127   0.076   0.127   0.076
   3  3.993   0.579   0.603   0.161   0.192   0.161   0.587   0.568   0.587
              0.133   0.130   0.077   0.130   0.083
   4  4.006   0.545   0.621   0.172   0.138   0.172   0.587   0.609   0.587
              0.133   0.136   0.087   0.136   0.081
   5  3.993   0.579   0.603   0.192   0.161   0.161   0.568   0.587   0.587
              0.130   0.130   0.081   0.133   0.079
   6  4.006   0.545   0.621   0.138   0.172   0.172   0.609   0.587   0.587
              0.136   0.136   0.083   0.133   0.086
   7  3.993   0.579   0.603   0.161   0.161   0.192   0.587   0.587   0.568
              0.130   0.133   0.081   0.130   0.079
   8  4.006   0.545   0.621   0.172   0.172   0.138   0.587   0.587   0.609
              0.136   0.133   0.083   0.136   0.086

mulliken: Qtot =       32.000

* Maximum dynamic memory allocated =    79 MB

siesta:                 ==============================
                            Begin CG move =      2
                        ==============================

outcoor: Atomic coordinates (Ang):                          
    0.05534828    0.05534818    0.05534834   1       1  Si
    1.38610823    1.38610827    1.38610855   1       2  Si
    2.76256939    2.76256942    0.03151498   1       3  Si
    4.09081857    4.09081865    1.37538736   1       4  Si
    2.76256972    0.03151551    2.76256994   1       5  Si
    4.09081845    1.37538723    4.09081918   1       6  Si
    0.03151566    2.76256965    2.76256996   1       7  Si
    1.37538734    4.09081843    4.09081924   1       8  Si
 Kpoints in:          108 . Kpoints trimmed:          108

siesta: k-grid: Number of k-points =   108
siesta: k-grid: Cutoff (effective) =    16.252 Ang
siesta: k-grid: Supercell and displacements
siesta: k-grid:    6   0   0      0.500
siesta: k-grid:    0   6   0      0.500
siesta: k-grid:    0   0   6      0.500
Naive supercell factors:     5    5    5

superc: Internal auxiliary supercell:     5 x     5 x     5  =     125
superc: Number of atoms, orbitals, and projectors:   1000  13000  16000

outcell: Unit cell vectors (Ang):
        5.417393   -0.020410   -0.020411
       -0.020410    5.417393   -0.020411
       -0.020411   -0.020411    5.417394

outcell: Cell vector modules (Ang)   :    5.417470    5.417470    5.417471
outcell: Cell angles (23,13,12) (deg):     90.4309     90.4309     90.4309
outcell: Cell volume (Ang**3)        :    158.9837
New_DM. Step:     3
Re-using DM from previous geometry...
Re-using DM without extrapolation (not allowed)

InitMesh: MESH =    36 x    36 x    36 =       46656
InitMesh: Mesh cutoff (required, used) =   100.000   122.057 Ry

InitMesh: MESH =    36 x    36 x    36 =       46656
InitMesh: Mesh cutoff (required, used) =   100.000   122.057 Ry

siesta: iscf   Eharris(eV)      E_KS(eV)   FreeEng(eV)   dDmax  Ef(eV)
siesta:    1    -1030.5468    -1029.1354    -1029.1354  0.0429 -5.0967

siesta: iscf   Eharris(eV)      E_KS(eV)   FreeEng(eV)   dDmax  Ef(eV)
siesta:    1    -1030.5468    -1029.1354    -1029.1354  0.0429 -5.0967
siesta:    2    -1030.7029    -1030.3871    -1030.3871  0.0518 -5.0981
siesta:    2    -1030.7029    -1030.3871    -1030.3871  0.0518 -5.0981
siesta:    3    -1030.4935    -1030.1763    -1030.1763  0.0147 -5.0936
siesta:    3    -1030.4935    -1030.1763    -1030.1763  0.0147 -5.0936
siesta:    4    -1030.4928    -1030.4579    -1030.4579  0.0013 -5.0959
siesta:    4    -1030.4928    -1030.4579    -1030.4579  0.0013 -5.0959
siesta:    5    -1030.4928    -1030.4687    -1030.4687  0.0008 -5.0955
siesta:    5    -1030.4928    -1030.4687    -1030.4687  0.0008 -5.0955

siesta: E_KS(eV) =            -1030.4850

siesta: Atomic forces (eV/Ang):
----------------------------------------
   Tot    0.019610    0.019611    0.019592
----------------------------------------
   Max    0.371398
   Res    0.287038    sqrt( Sum f_i^2 / 3N )
----------------------------------------
   Max    0.371398    constrained

Stress-tensor-Voigt (kbar):      -53.68      -53.68      -53.68      -14.98      -14.98      -14.98
(Free)E + p*V (eV/cell)    -1025.1581
Target enthalpy (eV/cell)    -1030.4850

siesta: Stress tensor (static) (eV/Ang**3):
        -0.033506   -0.009347   -0.009347
        -0.009347   -0.033506   -0.009347
        -0.009347   -0.009347   -0.033506

siesta: Pressure (static):         53.68362405  kBar

siesta: Stress tensor (total) (eV/Ang**3):
        -0.033506   -0.009347   -0.009347
        -0.009347   -0.033506   -0.009347
        -0.009347   -0.009347   -0.033506

siesta: Pressure (total):         53.68362405  kBar

mulliken: Mulliken Atomic and Orbital Populations:

Species: Si                  
Atom  Qatom  Qorb
               3s      3s      3py     3pz     3px     3py     3pz     3px     
               3Pdxy   3Pdyz   3Pdz2   3Pdxz   3Pdx2-y2
   1  3.999   0.596   0.593   0.197   0.197   0.197   0.561   0.561   0.561
              0.127   0.127   0.077   0.127   0.077
   2  4.001   0.611   0.585   0.207   0.207   0.207   0.552   0.552   0.552
              0.125   0.125   0.075   0.125   0.075
   3  3.999   0.599   0.592   0.198   0.199   0.198   0.560   0.559   0.560
              0.127   0.127   0.077   0.127   0.077
   4  4.001   0.591   0.596   0.204   0.196   0.204   0.557   0.561   0.557
              0.127   0.127   0.078   0.127   0.076
   5  3.999   0.599   0.592   0.199   0.198   0.198   0.559   0.560   0.560
              0.127   0.127   0.077   0.127   0.077
   6  4.001   0.591   0.596   0.196   0.204   0.204   0.561   0.557   0.557
              0.127   0.127   0.077   0.127   0.077
   7  3.999   0.599   0.592   0.198   0.198   0.199   0.560   0.560   0.559
              0.127   0.127   0.077   0.127   0.077
   8  4.001   0.591   0.596   0.204   0.204   0.196   0.557   0.557   0.561
              0.127   0.127   0.077   0.127   0.077

mulliken: Qtot =       32.000

* Maximum dynamic memory allocated =    79 MB

siesta:                 ==============================
                            Begin CG move =      3
                        ==============================

outcoor: Atomic coordinates (Ang):                          
    0.10971419    0.10971400    0.10971432   1       1  Si
    1.41123009    1.41123017    1.41123072   1       2  Si
    2.80264588    2.80264594    0.06385339   1       3  Si
    4.09907677    4.09907693    1.39157749   1       4  Si
    2.80264653    0.06385445    2.80264697   1       5  Si
    4.09907654    1.39157723    4.09907799   1       6  Si
    0.06385475    2.80264639    2.80264701   1       7  Si
    1.39157744    4.09907650    4.09907810   1       8  Si
 Kpoints in:          108 . Kpoints trimmed:          108

siesta: k-grid: Number of k-points =   108
siesta: k-grid: Cutoff (effective) =    16.590 Ang
siesta: k-grid: Supercell and displacements
siesta: k-grid:    6   0   0      0.500
siesta: k-grid:    0   6   0      0.500
siesta: k-grid:    0   0   6      0.500
Naive supercell factors:     5    5    5

superc: Internal auxiliary supercell:     5 x     5 x     5  =     125
superc: Number of atoms, orbitals, and projectors:   1000  13000  16000

outcell: Unit cell vectors (Ang):
        5.529579   -0.039915   -0.039916
       -0.039915    5.529579   -0.039916
       -0.039916   -0.039916    5.529579

outcell: Cell vector modules (Ang)   :    5.529867    5.529867    5.529867
outcell: Cell angles (23,13,12) (deg):     90.8241     90.8241     90.8241
outcell: Cell volume (Ang**3)        :    169.0472
New_DM. Step:     4
Re-using DM from previous geometry...
Re-using DM without extrapolation (not allowed)
Density Matrix sparsity pattern changed.

siesta: E_KS(eV) =            -1030.4850

siesta: Atomic forces (eV/Ang):
----------------------------------------
   Tot    0.019610    0.019611    0.019592
----------------------------------------
   Max    0.371398
   Res    0.287038    sqrt( Sum f_i^2 / 3N )
----------------------------------------
   Max    0.371398    constrained

Stress-tensor-Voigt (kbar):      -53.68      -53.68      -53.68      -14.98      -14.98      -14.98
(Free)E + p*V (eV/cell)    -1025.1581
Target enthalpy (eV/cell)    -1030.4850

siesta: Stress tensor (static) (eV/Ang**3):
        -0.033506   -0.009347   -0.009347
        -0.009347   -0.033506   -0.009347
        -0.009347   -0.009347   -0.033506

siesta: Pressure (static):         53.68362405  kBar

siesta: Stress tensor (total) (eV/Ang**3):
        -0.033506   -0.009347   -0.009347
        -0.009347   -0.033506   -0.009347
        -0.009347   -0.009347   -0.033506

siesta: Pressure (total):         53.68362405  kBar

mulliken: Mulliken Atomic and Orbital Populations:

Species: Si                  
Atom  Qatom  Qorb
               3s      3s      3py     3pz     3px     3py     3pz     3px     
               3Pdxy   3Pdyz   3Pdz2   3Pdxz   3Pdx2-y2
   1  3.999   0.596   0.593   0.197   0.197   0.197   0.561   0.561   0.561
              0.127   0.127   0.077   0.127   0.077
   2  4.001   0.611   0.585   0.207   0.207   0.207   0.552   0.552   0.552
              0.125   0.125   0.075   0.125   0.075
   3  3.999   0.599   0.592   0.198   0.199   0.198   0.560   0.559   0.560
              0.127   0.127   0.077   0.127   0.077
   4  4.001   0.591   0.596   0.204   0.196   0.204   0.557   0.561   0.557
              0.127   0.127   0.078   0.127   0.076
   5  3.999   0.599   0.592   0.199   0.198   0.198   0.559   0.560   0.560
              0.127   0.127   0.077   0.127   0.077
   6  4.001   0.591   0.596   0.196   0.204   0.204   0.561   0.557   0.557
              0.127   0.127   0.077   0.127   0.077
   7  3.999   0.599   0.592   0.198   0.198   0.199   0.560   0.560   0.559
              0.127   0.127   0.077   0.127   0.077
   8  4.001   0.591   0.596   0.204   0.204   0.196   0.557   0.557   0.561
              0.127   0.127   0.077   0.127   0.077

mulliken: Qtot =       32.000

* Maximum dynamic memory allocated =    79 MB

siesta:                 ==============================
                            Begin CG move =      3
                        ==============================

outcoor: Atomic coordinates (Ang):                          
    0.10971419    0.10971400    0.10971432   1       1  Si
    1.41123009    1.41123017    1.41123072   1       2  Si
    2.80264588    2.80264594    0.06385339   1       3  Si
    4.09907677    4.09907693    1.39157749   1       4  Si
    2.80264653    0.06385445    2.80264697   1       5  Si
    4.09907654    1.39157723    4.09907799   1       6  Si
    0.06385475    2.80264639    2.80264701   1       7  Si
    1.39157744    4.09907650    4.09907810   1       8  Si
 Kpoints in:          108 . Kpoints trimmed:          108

siesta: k-grid: Number of k-points =   108
siesta: k-grid: Cutoff (effective) =    16.590 Ang
siesta: k-grid: Supercell and displacements
siesta: k-grid:    6   0   0      0.500
siesta: k-grid:    0   6   0      0.500
siesta: k-grid:    0   0   6      0.500
Naive supercell factors:     5    5    5

superc: Internal auxiliary supercell:     5 x     5 x     5  =     125
superc: Number of atoms, orbitals, and projectors:   1000  13000  16000

outcell: Unit cell vectors (Ang):
        5.529579   -0.039915   -0.039916
       -0.039915    5.529579   -0.039916
       -0.039916   -0.039916    5.529579

outcell: Cell vector modules (Ang)   :    5.529867    5.529867    5.529867
outcell: Cell angles (23,13,12) (deg):     90.8241     90.8241     90.8241
outcell: Cell volume (Ang**3)        :    169.0472
New_DM. Step:     4
Re-using DM from previous geometry...
Re-using DM without extrapolation (not allowed)
Density Matrix sparsity pattern changed.

InitMesh: MESH =    36 x    36 x    36 =       46656
InitMesh: Mesh cutoff (required, used) =   100.000   117.182 Ry

InitMesh: MESH =    36 x    36 x    36 =       46656
InitMesh: Mesh cutoff (required, used) =   100.000   117.182 Ry

siesta: iscf   Eharris(eV)      E_KS(eV)   FreeEng(eV)   dDmax  Ef(eV)
siesta:    1    -1030.2680    -1028.5396    -1028.5396  0.0519 -4.9395

siesta: iscf   Eharris(eV)      E_KS(eV)   FreeEng(eV)   dDmax  Ef(eV)
siesta:    1    -1030.2680    -1028.5396    -1028.5396  0.0519 -4.9395
siesta:    2    -1030.8119    -1029.7255    -1029.7255  0.1066 -5.0121
siesta:    2    -1030.8119    -1029.7255    -1029.7255  0.1066 -5.0121
siesta:    3    -1030.0859    -1029.5098    -1029.5099  0.0273 -4.9764
siesta:    3    -1030.0859    -1029.5098    -1029.5099  0.0273 -4.9764
siesta:    4    -1030.0852    -1029.9805    -1029.9805  0.0031 -4.9797
siesta:    4    -1030.0852    -1029.9805    -1029.9805  0.0031 -4.9797
siesta:    5    -1030.0850    -1030.0192    -1030.0192  0.0017 -4.9795
siesta:    5    -1030.0850    -1030.0192    -1030.0192  0.0017 -4.9795
siesta:    6    -1030.0850    -1030.0627    -1030.0627  0.0004 -4.9789
siesta:    6    -1030.0850    -1030.0627    -1030.0627  0.0004 -4.9789

siesta: E_KS(eV) =            -1030.0706

siesta: Atomic forces (eV/Ang):
----------------------------------------
   Tot   -0.004057   -0.004064   -0.004075
----------------------------------------
   Max    1.544116
   Res    1.138202    sqrt( Sum f_i^2 / 3N )
----------------------------------------
   Max    1.544116    constrained

Stress-tensor-Voigt (kbar):       -5.29       -5.29       -5.29      -39.55      -39.55      -39.55
(Free)E + p*V (eV/cell)    -1029.5120
Target enthalpy (eV/cell)    -1030.0706

siesta: Stress tensor (static) (eV/Ang**3):
        -0.003304   -0.024686   -0.024686
        -0.024686   -0.003305   -0.024686
        -0.024686   -0.024686   -0.003304

siesta: Pressure (static):          5.29443147  kBar

siesta: Stress tensor (total) (eV/Ang**3):
        -0.003304   -0.024686   -0.024686
        -0.024686   -0.003305   -0.024686
        -0.024686   -0.024686   -0.003304

siesta: Pressure (total):          5.29443147  kBar

mulliken: Mulliken Atomic and Orbital Populations:

Species: Si                  
Atom  Qatom  Qorb
               3s      3s      3py     3pz     3px     3py     3pz     3px     
               3Pdxy   3Pdyz   3Pdz2   3Pdxz   3Pdx2-y2
   1  4.008   0.712   0.538   0.287   0.287   0.287   0.481   0.481   0.481
              0.109   0.109   0.063   0.109   0.063
   2  4.002   0.580   0.604   0.217   0.217   0.217   0.547   0.547   0.547
              0.125   0.125   0.076   0.125   0.076
   3  3.999   0.609   0.588   0.249   0.211   0.249   0.520   0.544   0.520
              0.118   0.122   0.077   0.122   0.069
   4  3.998   0.655   0.565   0.245   0.274   0.245   0.517   0.497   0.517
              0.118   0.114   0.066   0.114   0.071
   5  3.999   0.609   0.588   0.211   0.249   0.249   0.544   0.520   0.520
              0.122   0.122   0.071   0.118   0.075
   6  3.998   0.655   0.565   0.274   0.245   0.245   0.497   0.517   0.517
              0.114   0.114   0.070   0.118   0.067
   7  3.999   0.609   0.588   0.249   0.249   0.211   0.520   0.520   0.544
              0.122   0.118   0.071   0.122   0.075
   8  3.998   0.655   0.565   0.245   0.245   0.274   0.517   0.517   0.497
              0.114   0.118   0.070   0.114   0.067

mulliken: Qtot =       32.000

* Maximum dynamic memory allocated =    85 MB

siesta:                 ==============================
                            Begin CG move =      4
                        ==============================

outcoor: Atomic coordinates (Ang):                          
    0.06537185    0.06537173    0.06537192   1       1  Si
    1.39077771    1.39077776    1.39077808   1       2  Si
    2.77008364    2.77008367    0.03737759   1       3  Si
    4.09251189    4.09251199    1.37829480   1       4  Si
    2.77008402    0.03737823    2.77008429   1       5  Si
    4.09251175    1.37829466    4.09251262   1       6  Si
    0.03737840    2.77008394    2.77008431   1       7  Si
    1.37829478    4.09251173    4.09251269   1       8  Si
 Kpoints in:          108 . Kpoints trimmed:          108

siesta: k-grid: Number of k-points =   108
siesta: k-grid: Cutoff (effective) =    16.315 Ang
siesta: k-grid: Supercell and displacements
siesta: k-grid:    6   0   0      0.500
siesta: k-grid:    0   6   0      0.500
siesta: k-grid:    0   0   6      0.500
Naive supercell factors:     5    5    5

superc: Internal auxiliary supercell:     5 x     5 x     5  =     125
superc: Number of atoms, orbitals, and projectors:   1000  13000  16000

outcell: Unit cell vectors (Ang):
        5.438302   -0.024046   -0.024046
       -0.024046    5.438303   -0.024046
       -0.024046   -0.024046    5.438303

outcell: Cell vector modules (Ang)   :    5.438409    5.438409    5.438409
outcell: Cell angles (23,13,12) (deg):     90.5055     90.5055     90.5055
outcell: Cell volume (Ang**3)        :    160.8291
New_DM. Step:     5
Re-using DM from previous geometry...
Re-using DM without extrapolation (not allowed)
Density Matrix sparsity pattern changed.

siesta: E_KS(eV) =            -1030.0706

siesta: Atomic forces (eV/Ang):
----------------------------------------
   Tot   -0.004057   -0.004064   -0.004075
----------------------------------------
   Max    1.544116
   Res    1.138202    sqrt( Sum f_i^2 / 3N )
----------------------------------------
   Max    1.544116    constrained

Stress-tensor-Voigt (kbar):       -5.29       -5.29       -5.29      -39.55      -39.55      -39.55
(Free)E + p*V (eV/cell)    -1029.5120
Target enthalpy (eV/cell)    -1030.0706

siesta: Stress tensor (static) (eV/Ang**3):
        -0.003304   -0.024686   -0.024686
        -0.024686   -0.003305   -0.024686
        -0.024686   -0.024686   -0.003304

siesta: Pressure (static):          5.29443147  kBar

siesta: Stress tensor (total) (eV/Ang**3):
        -0.003304   -0.024686   -0.024686
        -0.024686   -0.003305   -0.024686
        -0.024686   -0.024686   -0.003304

siesta: Pressure (total):          5.29443147  kBar

mulliken: Mulliken Atomic and Orbital Populations:

Species: Si                  
Atom  Qatom  Qorb
               3s      3s      3py     3pz     3px     3py     3pz     3px     
               3Pdxy   3Pdyz   3Pdz2   3Pdxz   3Pdx2-y2
   1  4.008   0.712   0.538   0.287   0.287   0.287   0.481   0.481   0.481
              0.109   0.109   0.063   0.109   0.063
   2  4.002   0.580   0.604   0.217   0.217   0.217   0.547   0.547   0.547
              0.125   0.125   0.076   0.125   0.076
   3  3.999   0.609   0.588   0.249   0.211   0.249   0.520   0.544   0.520
              0.118   0.122   0.077   0.122   0.069
   4  3.998   0.655   0.565   0.245   0.274   0.245   0.517   0.497   0.517
              0.118   0.114   0.066   0.114   0.071
   5  3.999   0.609   0.588   0.211   0.249   0.249   0.544   0.520   0.520
              0.122   0.122   0.071   0.118   0.075
   6  3.998   0.655   0.565   0.274   0.245   0.245   0.497   0.517   0.517
              0.114   0.114   0.070   0.118   0.067
   7  3.999   0.609   0.588   0.249   0.249   0.211   0.520   0.520   0.544
              0.122   0.118   0.071   0.122   0.075
   8  3.998   0.655   0.565   0.245   0.245   0.274   0.517   0.517   0.497
              0.114   0.118   0.070   0.114   0.067

mulliken: Qtot =       32.000

* Maximum dynamic memory allocated =    85 MB

siesta:                 ==============================
                            Begin CG move =      4
                        ==============================

outcoor: Atomic coordinates (Ang):                          
    0.06537185    0.06537173    0.06537192   1       1  Si
    1.39077771    1.39077776    1.39077808   1       2  Si
    2.77008364    2.77008367    0.03737759   1       3  Si
    4.09251189    4.09251199    1.37829480   1       4  Si
    2.77008402    0.03737823    2.77008429   1       5  Si
    4.09251175    1.37829466    4.09251262   1       6  Si
    0.03737840    2.77008394    2.77008431   1       7  Si
    1.37829478    4.09251173    4.09251269   1       8  Si
 Kpoints in:          108 . Kpoints trimmed:          108

siesta: k-grid: Number of k-points =   108
siesta: k-grid: Cutoff (effective) =    16.315 Ang
siesta: k-grid: Supercell and displacements
siesta: k-grid:    6   0   0      0.500
siesta: k-grid:    0   6   0      0.500
siesta: k-grid:    0   0   6      0.500
Naive supercell factors:     5    5    5

superc: Internal auxiliary supercell:     5 x     5 x     5  =     125
superc: Number of atoms, orbitals, and projectors:   1000  13000  16000

outcell: Unit cell vectors (Ang):
        5.438302   -0.024046   -0.024046
       -0.024046    5.438303   -0.024046
       -0.024046   -0.024046    5.438303

outcell: Cell vector modules (Ang)   :    5.438409    5.438409    5.438409
outcell: Cell angles (23,13,12) (deg):     90.5055     90.5055     90.5055
outcell: Cell volume (Ang**3)        :    160.8291
New_DM. Step:     5
Re-using DM from previous geometry...
Re-using DM without extrapolation (not allowed)
Density Matrix sparsity pattern changed.

InitMesh: MESH =    36 x    36 x    36 =       46656
InitMesh: Mesh cutoff (required, used) =   100.000   121.124 Ry

InitMesh: MESH =    36 x    36 x    36 =       46656
InitMesh: Mesh cutoff (required, used) =   100.000   121.124 Ry

siesta: iscf   Eharris(eV)      E_KS(eV)   FreeEng(eV)   dDmax  Ef(eV)
siesta:    1    -1030.6050    -1031.5707    -1031.5707  0.0404 -5.0737

siesta: iscf   Eharris(eV)      E_KS(eV)   FreeEng(eV)   dDmax  Ef(eV)
siesta:    1    -1030.6050    -1031.5707    -1031.5707  0.0404 -5.0737
siesta:    2    -1030.8874    -1030.3130    -1030.3130  0.0718 -5.0616
siesta:    2    -1030.8874    -1030.3130    -1030.3130  0.0718 -5.0616
siesta:    3    -1030.5058    -1030.6780    -1030.6780  0.0156 -5.0567
siesta:    3    -1030.5058    -1030.6780    -1030.6780  0.0156 -5.0567
siesta:    4    -1030.5051    -1030.4509    -1030.4509  0.0031 -5.0534
siesta:    4    -1030.5051    -1030.4509    -1030.4509  0.0031 -5.0534
siesta:    5    -1030.5051    -1030.4639    -1030.4639  0.0020 -5.0537
siesta:    5    -1030.5051    -1030.4639    -1030.4639  0.0020 -5.0537
siesta:    6    -1030.5051    -1030.4951    -1030.4951  0.0004 -5.0531
siesta:    6    -1030.5051    -1030.4951    -1030.4951  0.0004 -5.0531

siesta: E_KS(eV) =            -1030.4999

siesta: Atomic forces (eV/Ang):
----------------------------------------
   Tot   -0.000940   -0.000936   -0.000956
----------------------------------------
   Max    0.514585
   Res    0.430314    sqrt( Sum f_i^2 / 3N )
----------------------------------------
   Max    0.514585    constrained

Stress-tensor-Voigt (kbar):      -42.64      -42.64      -42.64      -20.28      -20.28      -20.28
(Free)E + p*V (eV/cell)    -1026.2199
Target enthalpy (eV/cell)    -1030.4999

siesta: Stress tensor (static) (eV/Ang**3):
        -0.026612   -0.012657   -0.012657
        -0.012657   -0.026612   -0.012658
        -0.012657   -0.012658   -0.026612

siesta: Pressure (static):         42.63753584  kBar

siesta: Stress tensor (total) (eV/Ang**3):
        -0.026612   -0.012657   -0.012657
        -0.012657   -0.026612   -0.012658
        -0.012657   -0.012658   -0.026612

siesta: Pressure (total):         42.63753584  kBar

mulliken: Mulliken Atomic and Orbital Populations:

Species: Si                  
Atom  Qatom  Qorb
               3s      3s      3py     3pz     3px     3py     3pz     3px     
               3Pdxy   3Pdyz   3Pdz2   3Pdxz   3Pdx2-y2
   1  3.997   0.617   0.582   0.215   0.215   0.215   0.544   0.544   0.544
              0.124   0.124   0.074   0.124   0.074
   2  4.002   0.606   0.589   0.211   0.211   0.211   0.549   0.549   0.549
              0.125   0.125   0.075   0.125   0.075
   3  3.999   0.602   0.590   0.211   0.203   0.211   0.550   0.555   0.550
              0.125   0.126   0.076   0.126   0.075
   4  4.001   0.607   0.588   0.211   0.212   0.211   0.549   0.549   0.549
              0.125   0.125   0.075   0.125   0.075
   5  3.999   0.602   0.590   0.203   0.211   0.211   0.555   0.550   0.550
              0.126   0.126   0.075   0.125   0.076
   6  4.001   0.607   0.588   0.212   0.211   0.211   0.549   0.549   0.549
              0.125   0.125   0.075   0.125   0.075
   7  3.999   0.602   0.590   0.211   0.211   0.203   0.550   0.550   0.555
              0.126   0.125   0.075   0.126   0.076
   8  4.001   0.607   0.588   0.211   0.211   0.212   0.549   0.549   0.549
              0.125   0.125   0.075   0.125   0.075

mulliken: Qtot =       32.000

cgvc: Finished line minimization    1.  Mean atomic displacement =    0.1542

* Maximum dynamic memory allocated =    86 MB

siesta:                 ==============================
                            Begin CG move =      5
                        ==============================

outcoor: Atomic coordinates (Ang):                          
    0.04396549    0.04396572    0.04396701   1       1  Si
    1.47126321    1.47126322    1.47126293   1       2  Si
    2.80432348    2.80432350    0.05603748   1       3  Si
    4.22696817    4.22696826    1.47418333   1       4  Si
    2.80432338    0.05603642    2.80432415   1       5  Si
    4.22696840    1.47418328    4.22696841   1       6  Si
    0.05603637    2.80432341    2.80432399   1       7  Si
    1.47418326    4.22696846    4.22696827   1       8  Si
 Kpoints in:          108 . Kpoints trimmed:          108

siesta: k-grid: Number of k-points =   108
siesta: k-grid: Cutoff (effective) =    16.651 Ang
siesta: k-grid: Supercell and displacements
siesta: k-grid:    6   0   0      0.500
siesta: k-grid:    0   6   0      0.500
siesta: k-grid:    0   0   6      0.500
Naive supercell factors:     5    5    5

superc: Internal auxiliary supercell:     5 x     5 x     5  =     125
superc: Number of atoms, orbitals, and projectors:   1000  13000  16000

outcell: Unit cell vectors (Ang):
        5.550488    0.002893    0.002894
        0.002893    5.550488    0.002894
        0.002894    0.002894    5.550488

outcell: Cell vector modules (Ang)   :    5.550489    5.550489    5.550490
outcell: Cell angles (23,13,12) (deg):     89.9402     89.9402     89.9402
outcell: Cell volume (Ang**3)        :    170.9988
New_DM. Step:     6
Re-using DM from previous geometry...
Re-using DM without extrapolation (not allowed)
Density Matrix sparsity pattern changed.

siesta: E_KS(eV) =            -1030.4999

siesta: Atomic forces (eV/Ang):
----------------------------------------
   Tot   -0.000940   -0.000936   -0.000956
----------------------------------------
   Max    0.514585
   Res    0.430314    sqrt( Sum f_i^2 / 3N )
----------------------------------------
   Max    0.514585    constrained

Stress-tensor-Voigt (kbar):      -42.64      -42.64      -42.64      -20.28      -20.28      -20.28
(Free)E + p*V (eV/cell)    -1026.2199
Target enthalpy (eV/cell)    -1030.4999

siesta: Stress tensor (static) (eV/Ang**3):
        -0.026612   -0.012657   -0.012657
        -0.012657   -0.026612   -0.012658
        -0.012657   -0.012658   -0.026612

siesta: Pressure (static):         42.63753584  kBar

siesta: Stress tensor (total) (eV/Ang**3):
        -0.026612   -0.012657   -0.012657
        -0.012657   -0.026612   -0.012658
        -0.012657   -0.012658   -0.026612

siesta: Pressure (total):         42.63753584  kBar

mulliken: Mulliken Atomic and Orbital Populations:

Species: Si                  
Atom  Qatom  Qorb
               3s      3s      3py     3pz     3px     3py     3pz     3px     
               3Pdxy   3Pdyz   3Pdz2   3Pdxz   3Pdx2-y2
   1  3.997   0.617   0.582   0.215   0.215   0.215   0.544   0.544   0.544
              0.124   0.124   0.074   0.124   0.074
   2  4.002   0.606   0.589   0.211   0.211   0.211   0.549   0.549   0.549
              0.125   0.125   0.075   0.125   0.075
   3  3.999   0.602   0.590   0.211   0.203   0.211   0.550   0.555   0.550
              0.125   0.126   0.076   0.126   0.075
   4  4.001   0.607   0.588   0.211   0.212   0.211   0.549   0.549   0.549
              0.125   0.125   0.075   0.125   0.075
   5  3.999   0.602   0.590   0.203   0.211   0.211   0.555   0.550   0.550
              0.126   0.126   0.075   0.125   0.076
   6  4.001   0.607   0.588   0.212   0.211   0.211   0.549   0.549   0.549
              0.125   0.125   0.075   0.125   0.075
   7  3.999   0.602   0.590   0.211   0.211   0.203   0.550   0.550   0.555
              0.126   0.125   0.075   0.126   0.076
   8  4.001   0.607   0.588   0.211   0.211   0.212   0.549   0.549   0.549
              0.125   0.125   0.075   0.125   0.075

mulliken: Qtot =       32.000

cgvc: Finished line minimization    1.  Mean atomic displacement =    0.1542

* Maximum dynamic memory allocated =    86 MB

siesta:                 ==============================
                            Begin CG move =      5
                        ==============================

outcoor: Atomic coordinates (Ang):                          
    0.04396549    0.04396572    0.04396701   1       1  Si
    1.47126321    1.47126322    1.47126293   1       2  Si
    2.80432348    2.80432350    0.05603748   1       3  Si
    4.22696817    4.22696826    1.47418333   1       4  Si
    2.80432338    0.05603642    2.80432415   1       5  Si
    4.22696840    1.47418328    4.22696841   1       6  Si
    0.05603637    2.80432341    2.80432399   1       7  Si
    1.47418326    4.22696846    4.22696827   1       8  Si
 Kpoints in:          108 . Kpoints trimmed:          108

siesta: k-grid: Number of k-points =   108
siesta: k-grid: Cutoff (effective) =    16.651 Ang
siesta: k-grid: Supercell and displacements
siesta: k-grid:    6   0   0      0.500
siesta: k-grid:    0   6   0      0.500
siesta: k-grid:    0   0   6      0.500
Naive supercell factors:     5    5    5

superc: Internal auxiliary supercell:     5 x     5 x     5  =     125
superc: Number of atoms, orbitals, and projectors:   1000  13000  16000

outcell: Unit cell vectors (Ang):
        5.550488    0.002893    0.002894
        0.002893    5.550488    0.002894
        0.002894    0.002894    5.550488

outcell: Cell vector modules (Ang)   :    5.550489    5.550489    5.550490
outcell: Cell angles (23,13,12) (deg):     89.9402     89.9402     89.9402
outcell: Cell volume (Ang**3)        :    170.9988
New_DM. Step:     6
Re-using DM from previous geometry...
Re-using DM without extrapolation (not allowed)
Density Matrix sparsity pattern changed.

InitMesh: MESH =    36 x    36 x    36 =       46656
InitMesh: Mesh cutoff (required, used) =   100.000   116.264 Ry

InitMesh: MESH =    36 x    36 x    36 =       46656
InitMesh: Mesh cutoff (required, used) =   100.000   116.264 Ry

siesta: iscf   Eharris(eV)      E_KS(eV)   FreeEng(eV)   dDmax  Ef(eV)
siesta:    1    -1030.5740    -1028.8637    -1028.8637  0.0490 -4.8731

siesta: iscf   Eharris(eV)      E_KS(eV)   FreeEng(eV)   dDmax  Ef(eV)
siesta:    1    -1030.5740    -1028.8637    -1028.8637  0.0490 -4.8731
siesta:    2    -1030.5962    -1030.5312    -1030.5312  0.0343 -4.8862
siesta:    2    -1030.5962    -1030.5312    -1030.5312  0.0343 -4.8862
siesta:    3    -1030.5555    -1030.4823    -1030.4823  0.0044 -4.8802
siesta:    3    -1030.5555    -1030.4823    -1030.4823  0.0044 -4.8802
siesta:    4    -1030.5548    -1030.5476    -1030.5476  0.0019 -4.8815
siesta:    4    -1030.5548    -1030.5476    -1030.5476  0.0019 -4.8815
siesta:    5    -1030.5547    -1030.5632    -1030.5632  0.0013 -4.8824
siesta:    5    -1030.5547    -1030.5632    -1030.5632  0.0013 -4.8824
siesta:    6    -1030.5547    -1030.5548    -1030.5548  0.0003 -4.8827
siesta:    6    -1030.5547    -1030.5548    -1030.5548  0.0003 -4.8827

siesta: E_KS(eV) =            -1030.5528

siesta: Atomic forces (eV/Ang):
----------------------------------------
   Tot    0.008506    0.008503    0.008529
----------------------------------------
   Max    0.609331
   Res    0.441113    sqrt( Sum f_i^2 / 3N )
----------------------------------------
   Max    0.609331    constrained

Stress-tensor-Voigt (kbar):       12.36       12.36       12.36       11.11       11.11       11.11
(Free)E + p*V (eV/cell)    -1031.8716
Target enthalpy (eV/cell)    -1030.5528

siesta: Stress tensor (static) (eV/Ang**3):
         0.007712    0.006933    0.006934
         0.006933    0.007712    0.006934
         0.006934    0.006934    0.007713

siesta: Pressure (static):        -12.35691695  kBar

siesta: Stress tensor (total) (eV/Ang**3):
         0.007712    0.006933    0.006934
         0.006933    0.007712    0.006934
         0.006934    0.006934    0.007713

siesta: Pressure (total):        -12.35691695  kBar

mulliken: Mulliken Atomic and Orbital Populations:

Species: Si                  
Atom  Qatom  Qorb
               3s      3s      3py     3pz     3px     3py     3pz     3px     
               3Pdxy   3Pdyz   3Pdz2   3Pdxz   3Pdx2-y2
   1  3.998   0.679   0.552   0.269   0.269   0.269   0.496   0.496   0.496
              0.113   0.113   0.066   0.113   0.066
   2  4.003   0.629   0.577   0.246   0.246   0.246   0.521   0.521   0.521
              0.119   0.119   0.071   0.119   0.071
   3  4.001   0.643   0.571   0.261   0.247   0.261   0.507   0.516   0.507
              0.116   0.117   0.070   0.117   0.068
   4  3.998   0.662   0.561   0.254   0.265   0.254   0.510   0.502   0.510
              0.116   0.115   0.066   0.115   0.068
   5  4.001   0.643   0.571   0.247   0.261   0.261   0.516   0.507   0.507
              0.117   0.117   0.068   0.116   0.070
   6  3.998   0.662   0.561   0.265   0.254   0.254   0.502   0.510   0.510
              0.115   0.115   0.068   0.116   0.067
   7  4.001   0.643   0.571   0.261   0.261   0.247   0.507   0.507   0.516
              0.117   0.116   0.068   0.117   0.070
   8  3.998   0.662   0.561   0.254   0.254   0.265   0.510   0.510   0.502
              0.115   0.116   0.068   0.115   0.067

mulliken: Qtot =       32.000

* Maximum dynamic memory allocated =    86 MB

siesta:                 ==============================
                            Begin CG move =      6
                        ==============================

outcoor: Atomic coordinates (Ang):                          
    0.05296513    0.05296522    0.05296605   1       1  Si
    1.43779075    1.43779077    1.43779074   1       2  Si
    2.79043781    2.79043783    0.04847767   1       3  Si
    4.17134095    4.17134104    1.43445099   1       4  Si
    2.79043791    0.04847732    2.79043847   1       5  Si
    4.17134102    1.43445090    4.17134139   1       6  Si
    0.04847736    2.79043790    2.79043839   1       7  Si
    1.43445094    4.17134105    4.17134133   1       8  Si
 Kpoints in:          108 . Kpoints trimmed:          108

siesta: k-grid: Number of k-points =   108
siesta: k-grid: Cutoff (effective) =    16.513 Ang
siesta: k-grid: Supercell and displacements
siesta: k-grid:    6   0   0      0.500
siesta: k-grid:    0   6   0      0.500
siesta: k-grid:    0   0   6      0.500
Naive supercell factors:     5    5    5

superc: Internal auxiliary supercell:     5 x     5 x     5  =     125
superc: Number of atoms, orbitals, and projectors:   1000  13000  16000

outcell: Unit cell vectors (Ang):
        5.504212   -0.008219   -0.008219
       -0.008219    5.504212   -0.008219
       -0.008219   -0.008219    5.504212

outcell: Cell vector modules (Ang)   :    5.504224    5.504224    5.504225
outcell: Cell angles (23,13,12) (deg):     90.1710     90.1710     90.1710
outcell: Cell volume (Ang**3)        :    166.7564
New_DM. Step:     7
Re-using DM from previous geometry...
Re-using DM without extrapolation (not allowed)
Density Matrix sparsity pattern changed.

siesta: E_KS(eV) =            -1030.5528

siesta: Atomic forces (eV/Ang):
----------------------------------------
   Tot    0.008506    0.008503    0.008529
----------------------------------------
   Max    0.609331
   Res    0.441113    sqrt( Sum f_i^2 / 3N )
----------------------------------------
   Max    0.609331    constrained

Stress-tensor-Voigt (kbar):       12.36       12.36       12.36       11.11       11.11       11.11
(Free)E + p*V (eV/cell)    -1031.8716
Target enthalpy (eV/cell)    -1030.5528

siesta: Stress tensor (static) (eV/Ang**3):
[...]
         10.57  10.97  11.08  11.34  11.45  11.79  12.09  12.39  13.03  13.27
         14.03  14.16  14.45  14.49  14.70  15.56  15.88  16.14  16.41  17.01
         17.63  17.75  18.59  18.78  19.42  20.63  21.66  22.20  22.65  23.10
         23.27  23.58  24.55  24.96  26.06  26.35  31.65  35.94  37.31  39.44
         41.58  49.90  51.56  53.40  55.04  64.01  64.39  64.42  66.83  70.98
         76.06  86.76  93.94  95.41
  93  1 -16.05 -15.40 -14.29 -13.95 -12.12 -11.73 -10.34  -9.47  -9.34  -9.17
         -8.18  -7.93  -7.75  -7.50  -7.26  -6.37  -3.21  -3.18  -2.77  -2.12
         -2.02  -1.57  -1.57  -0.85  -0.83  -0.60  -0.37  -0.27   0.62   0.71
          1.24   2.04   2.08   2.09   2.69   3.54   4.00   4.03   4.65   5.66
          5.80   5.82   7.72   7.80   8.33   8.44   9.05   9.37   9.47  10.25
         10.57  11.02  11.10  11.34  11.48  11.77  12.07  12.43  13.05  13.35
         14.02  14.24  14.47  14.50  14.69  15.48  15.82  16.14  16.42  16.99
         17.61  17.75  18.56  18.76  19.38  20.60  21.67  22.25  22.63  23.08
         23.27  23.59  24.59  24.91  26.06  26.29  31.43  35.93  37.28  39.64
         41.15  50.25  51.81  53.65  55.13  63.89  64.20  64.41  66.66  70.85
         75.82  86.66  93.68  95.48
  94  1 -15.84 -15.24 -14.36 -14.36 -12.00 -12.00 -10.98 -10.18  -8.77  -8.77
         -7.78  -7.48  -7.48  -7.19  -6.70  -6.68  -3.32  -3.22  -2.97  -2.97
         -2.09  -1.42  -1.42  -1.28  -1.18  -0.47  -0.21   0.49   0.50   0.69
          0.96   0.96   2.87   2.88   3.28   3.40   4.98   5.09   5.14   5.46
          5.47   5.47   6.47   6.47   7.26   8.36   8.91   9.12   9.13   9.23
          9.48   9.48  11.13  11.47  11.47  11.81  13.15  13.33  13.51  13.52
         13.61  14.58  14.99  15.00  16.04  16.04  16.33  16.38  17.22  17.32
         17.32  17.89  17.89  19.06  19.21  19.21  20.68  21.83  21.94  23.72
         24.42  24.42  25.05  26.86  27.50  27.50  31.68  32.72  35.06  35.06
         40.83  48.85  54.44  54.44  57.43  59.94  63.26  65.23  65.23  68.00
         83.61  87.63  87.63  94.05
  95  1 -15.45 -14.94 -14.94 -14.59 -12.02 -11.63 -11.63 -11.00  -8.31  -7.91
         -7.91  -7.23  -6.96  -6.92  -6.92  -6.40  -3.35  -3.19  -2.86  -2.86
         -2.07  -2.07  -1.78  -1.73  -1.29  -0.94  -0.81  -0.81   1.48   1.48
          2.19   2.41   2.63   3.20   3.56   4.03   4.03   4.39   4.39   4.76
          5.22   7.01   7.01   7.14   7.14   7.81   8.14   8.60   8.90   8.90
          8.97   9.36   9.40  10.11  10.58  10.58  13.86  14.08  14.08  15.05
         15.06  15.10  15.50  15.65  15.76  15.97  16.36  16.36  17.55  18.34
         18.34  18.39  18.88  18.88  19.32  19.61  20.43  20.43  21.05  21.59
         26.75  26.89  26.89  28.27  28.57  32.07  32.07  34.11  38.64  39.52
         39.53  45.77  54.75  54.76  58.07  58.83  60.40  72.97  72.98  78.42
         84.06  84.07  84.88 102.96
  96  1 -15.47 -14.93 -14.92 -14.59 -12.02 -11.64 -11.63 -11.01  -8.32  -7.92
         -7.90  -7.21  -6.95  -6.94  -6.92  -6.38  -3.30  -3.17  -2.89  -2.86
         -2.10  -2.08  -1.76  -1.72  -1.31  -0.93  -0.84  -0.82   1.41   1.44
          2.20   2.43   2.56   3.24   3.61   4.05   4.05   4.43   4.43   4.76
          5.19   7.04   7.05   7.18   7.22   7.82   8.09   8.64   8.91   8.95
          8.95   9.31   9.33  10.08  10.49  10.55  13.83  14.07  14.11  15.05
         15.08  15.09  15.45  15.58  15.77  15.96  16.41  16.44  17.58  18.30
         18.35  18.38  18.90  18.97  19.35  19.65  20.43  20.44  21.09  21.47
         26.84  26.86  26.96  28.30  28.58  32.07  32.10  34.22  38.68  39.52
         39.57  45.92  54.45  54.58  58.39  59.04  60.98  73.18  73.23  78.28
         84.07  84.16  84.80 104.71
  97  1 -15.46 -14.94 -14.94 -14.57 -12.02 -11.64 -11.63 -11.01  -8.33  -7.90
         -7.90  -7.20  -6.97  -6.92  -6.92  -6.38  -3.31  -3.21  -2.84  -2.84
         -2.08  -2.08  -1.78  -1.70  -1.33  -0.96  -0.82  -0.82   1.42   1.42
          2.16   2.39   2.61   3.24   3.61   4.05   4.06   4.44   4.44   4.80
          5.27   7.04   7.04   7.16   7.16   7.80   8.13   8.65   8.94   8.94
          9.00   9.28   9.35  10.05  10.48  10.48  13.80  14.05  14.05  15.03
         15.03  15.15  15.44  15.63  15.79  16.02  16.45  16.45  17.61  18.34
         18.34  18.37  18.88  18.88  19.34  19.66  20.47  20.47  21.08  21.51
         26.75  26.93  26.93  28.35  28.56  32.24  32.25  34.14  38.62  39.61
         39.61  45.65  55.03  55.04  58.03  58.95  60.74  73.21  73.22  78.54
         84.44  84.46  84.66 103.82
  98  1 -15.63 -15.04 -15.03 -14.51 -11.62 -11.01 -11.01 -10.22  -9.27  -8.79
         -8.79  -8.20  -7.09  -7.01  -7.01  -6.32  -3.31  -2.69  -2.41  -2.41
         -1.72  -1.72  -1.41  -1.16  -0.12  -0.12  -0.11   0.05   0.44   0.44
          0.68   1.22   1.73   2.15   2.50   2.77   2.77   4.21   4.21   5.39
          5.79   7.60   7.60   8.17   8.73   8.73   9.38   9.66   9.89  10.03
         10.03  10.68  11.11  11.68  11.68  12.00  12.73  12.81  12.81  12.85
         13.43  13.74  13.74  14.41  14.90  15.14  15.14  15.54  17.40  18.13
         18.14  19.17  19.80  19.90  19.90  20.37  21.51  21.51  21.71  22.28
         25.51  25.54  25.96  25.96  27.57  35.92  35.92  40.23  42.80  42.80
         48.43  51.99  52.00  53.23  57.67  59.38  60.48  68.86  68.87  78.40
         79.10  81.15  81.15  97.21
  99  1 -15.63 -15.04 -15.03 -14.52 -11.62 -11.00 -11.00 -10.21  -9.27  -8.80
         -8.80  -8.21  -7.09  -7.01  -7.01  -6.33  -3.31  -2.70  -2.42  -2.42
         -1.74  -1.74  -1.41  -1.18  -0.09  -0.07  -0.07   0.09   0.46   0.46
          0.70   1.23   1.69   2.13   2.51   2.73   2.73   4.21   4.21   5.37
          5.77   7.60   7.60   8.18   8.72   8.72   9.37   9.69   9.93   9.96
          9.96  10.69  11.05  11.71  11.71  12.05  12.70  12.88  12.92  12.92
         13.49  13.73  13.73  14.41  14.86  15.06  15.06  15.52  17.40  18.13
         18.14  19.14  19.77  19.90  19.90  20.36  21.48  21.48  21.70  22.32
         25.52  25.55  25.94  25.94  27.55  35.88  35.88  40.22  42.44  42.45
         48.34  52.23  52.23  53.13  57.51  59.30  60.71  68.44  68.44  78.52
         79.05  80.96  80.97  97.16
 100  1 -15.45 -14.94 -14.94 -14.59 -12.02 -11.63 -11.63 -11.00  -8.31  -7.91
         -7.91  -7.23  -6.96  -6.92  -6.92  -6.40  -3.35  -3.19  -2.86  -2.86
         -2.07  -2.07  -1.78  -1.73  -1.29  -0.94  -0.81  -0.81   1.48   1.48
          2.19   2.41   2.63   3.20   3.56   4.03   4.03   4.39   4.39   4.76
          5.22   7.01   7.01   7.14   7.14   7.81   8.14   8.60   8.90   8.90
          8.97   9.36   9.40  10.11  10.58  10.58  13.86  14.08  14.08  15.05
         15.06  15.10  15.50  15.65  15.76  15.97  16.36  16.36  17.55  18.34
         18.34  18.39  18.88  18.88  19.32  19.61  20.43  20.43  21.05  21.59
         26.75  26.89  26.89  28.27  28.57  32.07  32.07  34.11  38.64  39.52
         39.53  45.77  54.75  54.76  58.07  58.83  60.40  72.97  72.98  78.42
         84.06  84.07  84.88 102.96
 101  1 -15.14 -14.82 -14.82 -14.82 -12.10 -12.10 -12.10 -11.71  -7.15  -7.15
         -7.15  -6.75  -6.75  -6.75  -6.55  -6.55  -3.97  -3.46  -3.46  -3.46
         -1.99  -1.99  -1.99  -1.91  -1.91  -1.61  -1.61  -1.61   2.97   2.97
          2.97   3.36   4.15   4.15   4.28   4.28   4.28   5.27   5.42   5.42
          5.42   6.20   6.20   6.20   6.29   6.29   6.29   7.76   7.76   8.03
          8.03   8.03   8.74   8.74   8.75   8.87  15.91  15.91  15.91  15.92
         16.41  16.41  16.64  16.64  16.64  17.19  17.19  17.19  17.95  17.95
         17.95  18.95  18.95  18.96  19.39  19.39  19.39  19.90  19.90  21.19
         27.84  27.84  27.84  29.18  29.18  29.63  29.63  29.63  48.89  48.89
         48.90  53.89  62.27  62.31  62.31  67.34  67.34  67.36  76.38  76.38
         92.31  92.31  92.31  97.71
 102  1 -15.16 -14.82 -14.82 -14.79 -12.10 -12.10 -12.10 -11.72  -7.18  -7.16
         -7.15  -6.77  -6.75  -6.75  -6.53  -6.53  -3.93  -3.50  -3.45  -3.45
         -2.02  -2.01  -2.01  -1.91  -1.88  -1.62  -1.60  -1.59   2.91   2.91
          2.93   3.39   4.12   4.17   4.28   4.29   4.29   5.27   5.46   5.46
          5.47   6.23   6.23   6.24   6.33   6.35   6.35   7.70   7.75   8.00
          8.00   8.03   8.68   8.68   8.75   8.81  15.84  15.91  15.91  15.97
         16.38  16.43  16.59  16.60  16.62  17.23  17.25  17.26  17.97  17.97
         18.08  18.93  18.95  18.96  19.37  19.39  19.39  19.94  19.94  21.03
         27.85  27.96  27.96  29.18  29.33  29.55  29.58  29.58  48.65  48.94
         48.94  53.86  61.88  62.74  62.75  67.05  67.05  67.31  77.18  78.21
         92.62  92.63  92.78  98.30
 103  1 -15.47 -14.93 -14.92 -14.59 -12.02 -11.64 -11.63 -11.01  -8.32  -7.92
         -7.90  -7.21  -6.95  -6.94  -6.92  -6.38  -3.30  -3.17  -2.89  -2.86
         -2.10  -2.08  -1.76  -1.72  -1.31  -0.93  -0.84  -0.82   1.41   1.44
          2.20   2.43   2.56   3.24   3.61   4.05   4.05   4.43   4.43   4.76
          5.19   7.04   7.05   7.18   7.22   7.82   8.09   8.64   8.91   8.95
          8.95   9.31   9.33  10.08  10.49  10.55  13.83  14.07  14.11  15.05
         15.08  15.09  15.45  15.58  15.77  15.96  16.41  16.44  17.58  18.30
         18.35  18.38  18.90  18.97  19.35  19.65  20.43  20.44  21.09  21.47
         26.84  26.86  26.96  28.30  28.58  32.07  32.10  34.22  38.68  39.52
         39.57  45.92  54.45  54.58  58.39  59.04  60.98  73.18  73.23  78.28
         84.07  84.16  84.80 104.71
 104  1 -15.64 -15.03 -15.02 -14.53 -11.62 -11.01 -11.01 -10.21  -9.27  -8.80
         -8.79  -8.21  -7.07  -7.02  -7.01  -6.31  -3.29  -2.67  -2.45  -2.43
         -1.75  -1.73  -1.39  -1.16  -0.13  -0.11  -0.09   0.09   0.43   0.44
          0.72   1.25   1.74   2.16   2.44   2.70   2.73   4.27   4.28   5.34
          5.72   7.66   7.68   8.17   8.71   8.73   9.32   9.67   9.87   9.98
         10.03  10.67  11.09  11.71  11.73  12.00  12.69  12.84  12.86  12.87
         13.46  13.76  13.77  14.36  14.89  15.10  15.13  15.50  17.33  18.12
         18.15  19.21  19.76  19.90  19.94  20.40  21.46  21.47  21.75  22.27
         25.54  25.59  25.92  25.95  27.57  35.88  35.91  40.28  42.45  42.52
         48.84  51.65  51.81  53.18  58.02  59.63  60.44  68.72  68.78  78.46
         78.91  81.01  81.16  97.10
 105  1 -15.64 -15.03 -15.02 -14.53 -11.62 -11.01 -11.01 -10.21  -9.27  -8.80
         -8.79  -8.21  -7.07  -7.02  -7.01  -6.31  -3.29  -2.67  -2.45  -2.43
         -1.75  -1.73  -1.39  -1.16  -0.13  -0.11  -0.09   0.09   0.43   0.44
          0.72   1.25   1.74   2.16   2.44   2.70   2.73   4.27   4.28   5.34
          5.72   7.66   7.68   8.17   8.71   8.73   9.32   9.67   9.87   9.98
         10.03  10.67  11.09  11.71  11.73  12.00  12.69  12.84  12.86  12.87
         13.46  13.76  13.77  14.36  14.89  15.10  15.13  15.50  17.33  18.12
         18.15  19.21  19.76  19.90  19.94  20.40  21.46  21.47  21.75  22.27
         25.54  25.59  25.92  25.95  27.57  35.88  35.91  40.28  42.45  42.52
         48.84  51.65  51.81  53.18  58.02  59.63  60.44  68.72  68.78  78.46
         78.91  81.01  81.16  97.10
 106  1 -15.47 -14.93 -14.92 -14.59 -12.02 -11.64 -11.63 -11.01  -8.32  -7.92
         -7.90  -7.21  -6.95  -6.94  -6.92  -6.38  -3.30  -3.17  -2.89  -2.86
         -2.10  -2.08  -1.76  -1.72  -1.31  -0.93  -0.84  -0.82   1.41   1.44
          2.20   2.43   2.56   3.24   3.61   4.05   4.05   4.43   4.43   4.76
          5.19   7.04   7.05   7.18   7.22   7.82   8.09   8.64   8.91   8.95
          8.95   9.31   9.33  10.08  10.49  10.55  13.83  14.07  14.11  15.05
         15.08  15.09  15.45  15.58  15.77  15.96  16.41  16.44  17.58  18.30
         18.35  18.38  18.90  18.97  19.35  19.65  20.43  20.44  21.09  21.47
         26.84  26.86  26.96  28.30  28.58  32.07  32.10  34.22  38.68  39.52
         39.57  45.92  54.45  54.58  58.39  59.04  60.98  73.18  73.23  78.28
         84.07  84.16  84.80 104.71
 107  1 -15.16 -14.82 -14.82 -14.79 -12.10 -12.10 -12.10 -11.72  -7.18  -7.16
         -7.15  -6.77  -6.75  -6.75  -6.53  -6.53  -3.93  -3.50  -3.45  -3.45
         -2.02  -2.01  -2.01  -1.91  -1.88  -1.62  -1.60  -1.59   2.91   2.91
          2.93   3.39   4.12   4.17   4.28   4.29   4.29   5.27   5.46   5.46
          5.47   6.23   6.23   6.24   6.33   6.35   6.35   7.70   7.75   8.00
          8.00   8.03   8.68   8.68   8.75   8.81  15.84  15.91  15.91  15.97
         16.38  16.43  16.59  16.60  16.62  17.23  17.25  17.26  17.97  17.97
         18.08  18.93  18.95  18.96  19.37  19.39  19.39  19.94  19.94  21.03
         27.85  27.96  27.96  29.18  29.33  29.55  29.58  29.58  48.65  48.94
         48.94  53.86  61.88  62.74  62.75  67.05  67.05  67.31  77.18  78.21
         92.62  92.63  92.78  98.30
 108  1 -15.16 -14.82 -14.82 -14.79 -12.10 -12.10 -12.10 -11.72  -7.18  -7.16
         -7.15  -6.77  -6.75  -6.75  -6.53  -6.53  -3.93  -3.50  -3.45  -3.45
         -2.02  -2.01  -2.01  -1.91  -1.88  -1.62  -1.60  -1.59   2.91   2.91
          2.93   3.39   4.12   4.17   4.28   4.29   4.29   5.27   5.46   5.46
          5.47   6.23   6.23   6.24   6.33   6.35   6.35   7.70   7.75   8.00
          8.00   8.03   8.68   8.68   8.75   8.81  15.84  15.91  15.91  15.97
         16.38  16.43  16.59  16.60  16.62  17.23  17.25  17.26  17.97  17.97
         18.08  18.93  18.95  18.96  19.37  19.39  19.39  19.94  19.94  21.03
         27.85  27.96  27.96  29.18  29.33  29.55  29.58  29.58  48.65  48.94
         48.94  53.86  61.88  62.74  62.75  67.05  67.05  67.31  77.18  78.21
         92.62  92.63  92.78  98.30
siesta: Fermi energy =      -4.989507 eV

siesta: Program's energy decomposition (eV):
siesta: Ebs     =      -331.430798
siesta: Eions   =      1510.441798
siesta: Ena     =       471.425205
siesta: Ekin    =       319.057687
siesta: Enl     =       127.049902
siesta: DEna    =         6.666698
siesta: DUscf   =         1.516920
siesta: DUext   =         0.000000
siesta: Exc     =      -445.950387
siesta: eta*DQ  =         0.000000
siesta: Emadel  =         0.000000
siesta: Emeta   =         0.000000
siesta: Emolmec =         0.000000
siesta: Ekinion =         0.000000
siesta: Eharris =     -1030.674491
siesta: Etot    =     -1030.675774
siesta: FreeEng =     -1030.675774

siesta: Final energy (eV):
siesta:  Band Struct. =    -331.430798
siesta:       Kinetic =     319.057687
siesta:       Hartree =      59.999803
siesta:    Ext. field =       0.000000
siesta:   Exch.-corr. =    -445.950387
siesta:  Ion-electron =    -421.776968
siesta:       Ion-ion =    -542.005909
siesta:       Ekinion =       0.000000
siesta:         Total =   -1030.675774

siesta: Stress tensor (static) (eV/Ang**3):
siesta:     0.000637   -0.000990   -0.000990
siesta:    -0.000990    0.000637   -0.000990
siesta:    -0.000990   -0.000990    0.000637

siesta: Constrained stress tensor (static) (eV/Ang**3):
siesta:     0.000637   -0.000990   -0.000990
siesta:    -0.000990    0.000637   -0.000990
siesta:    -0.000990   -0.000990    0.000637

siesta: Cell volume =        168.420858 Ang**3

siesta: Pressure (static):
siesta:                Solid            Molecule  Units
siesta:          -0.00000693         -0.00002073  Ry/Bohr**3
siesta:          -0.00063657         -0.00190331  eV/Ang**3
siesta:          -1.01991026         -3.04946914  kBar
(Free)E+ p_basis*V_orbitals  =       -1021.738043
(Free)Eharris+ p_basis*V_orbitals  =       -1021.737809

* Maximum dynamic memory allocated : Node    0 =    86 MB

* Maximum memory occured during init_pulay_arrrays            

timer: CPU execution times:
timer:  Routine       Calls   Time/call    Tot.time        %
timer:  siesta            1     952.271     952.271   100.00
timer:  Setup             1       0.160       0.160     0.02
timer:  bands             3       0.588       1.764     0.19
timer:  writewave         3       0.005       0.016     0.00
timer:  KSV_init          1       0.000       0.000     0.00
timer:  IterMD           11      86.381     950.187    99.78
timer:  hsparse          11       0.165       1.816     0.19
timer:  overlap          11       0.131       1.444     0.15
timer:  IterSCF          54      14.454     780.505    81.96
timer:  kinefsm          22       0.127       2.804     0.29
timer:  nlefsm           22       3.529      77.629     8.15
timer:  DHSCF            65       8.438     548.470    57.60
timer:  DHSCF1           11       0.051       0.556     0.06
timer:  DHSCF2           11       2.203      24.237     2.55
timer:  REORD           412       0.000       0.020     0.00
timer:  POISON           76       0.005       0.384     0.04
timer:  DHSCF3           65       7.419     482.250    50.64
timer:  rhoofd           65       3.358     218.298    22.92
timer:  cellXC           65       0.120       7.784     0.82
timer:  vmat             65       3.935     255.760    26.86
timer:  MolMec           22       0.000       0.000     0.00
timer:  diagon           54       5.818     314.160    32.99
timer:  c-eigval       5933       0.016      93.050     9.77
timer:  c-buildHS      5933       0.011      65.558     6.88
timer:  cdiag         11766       0.007      83.944     8.82
timer:  cdiag1        11766       0.001       6.161     0.65
timer:  cdiag2        11766       0.002      22.036     2.31
timer:  cdiag3        11766       0.005      53.835     5.65
timer:  cdiag4        11766       0.000       1.604     0.17
timer:  c-eigvec       5833       0.021     121.342    12.74
timer:  c-buildD       5832       0.017     101.028    10.61
timer:  DHSCF4           11       3.762      41.387     4.35
timer:  dfscf            11       3.535      38.890     4.08
timer:  overfsm          11       0.123       1.356     0.14
timer:  optical           1       0.000       0.000     0.00
  

elaps: ELAPSED times:
elaps:  Routine       Calls   Time/call    Tot.time        %
elaps:  siesta            1     957.344     957.344   100.00
elaps:  Setup             1       0.181       0.181     0.02
elaps:  bands             3       0.590       1.770     0.18
elaps:  writewave         3       0.007       0.021     0.00
elaps:  KSV_init          1       0.001       0.001     0.00
elaps:  IterMD           11      86.839     955.232    99.78
elaps:  hsparse          11       0.168       1.846     0.19
elaps:  overlap          11       0.131       1.440     0.15
elaps:  IterSCF          54      14.532     784.732    81.97
elaps:  kinefsm          22       0.128       2.817     0.29
elaps:  nlefsm           22       3.542      77.918     8.14
elaps:  DHSCF            65       8.482     551.333    57.59
elaps:  DHSCF1           11       0.051       0.566     0.06
elaps:  DHSCF2           11       2.212      24.332     2.54
elaps:  REORD           412       0.000       0.031     0.00
elaps:  POISON           76       0.005       0.366     0.04
elaps:  DHSCF3           65       7.459     484.841    50.64
elaps:  rhoofd           65       3.374     219.330    22.91
elaps:  cellXC           65       0.120       7.811     0.82
elaps:  vmat             65       3.958     257.281    26.87
elaps:  MolMec           22       0.000       0.000     0.00
elaps:  diagon           54       5.851     315.943    33.00
elaps:  c-eigval       5933       0.016      93.606     9.78
elaps:  c-buildHS      5933       0.011      65.978     6.89
elaps:  cdiag         11766       0.007      84.557     8.83
elaps:  cdiag1        11766       0.001       6.217     0.65
elaps:  cdiag2        11766       0.002      22.174     2.32
elaps:  cdiag3        11766       0.005      54.268     5.67
elaps:  cdiag4        11766       0.000       1.620     0.17
elaps:  c-eigvec       5833       0.021     121.963    12.74
elaps:  c-buildD       5832       0.017     101.684    10.62
elaps:  DHSCF4           11       3.779      41.570     4.34
elaps:  dfscf            11       3.551      39.061     4.08
elaps:  overfsm          11       0.124       1.363     0.14
elaps:  optical           1       0.000       0.000     0.00
  
>> End of run:   9-MAY-2013  14:48:30
