Siesta Version:                                        siesta-3.2
Architecture  : x86_64-unknown-linux-gnu--unknown
Compiler flags: f95 -g -O2
SERIAL version

* Running in serial mode
Siesta Version:                                        siesta-3.2
Architecture  : x86_64-unknown-linux-gnu--unknown
Compiler flags: f95 -g -O2
SERIAL version

* Running in serial mode
>> Start of run:   9-MAY-2013  23:20:36
>> Start of run:   9-MAY-2013  23:20:36

                           ***********************       
                           *  WELCOME TO SIESTA  *       
                           ***********************       

reinit: Reading from standard input
************************** Dump of input data file ****************************
# FDF for silicon
SystemName             silicon          # Descriptive name of the system
SystemLabel            si          # Short name for naming files
NumberOfAtoms 8
NumberOfSpecies 1
%block ChemicalSpeciesLabel
1 14 Si
%endblock ChemicalSpeciesLabel
LatticeConstant  4.95 Ang
##Basis set Definition##
PAO.BasisType          split        # Type of PAO basis set
PAO.EnergyShift        50 meV
PAO.BasisSize          DZP          # (DZP) Double-z + polarization
#%block LatticeVectors
#0.500 0.500 0.000
#0.500 0.000 0.500
#0.000 0.500 0.500
#%endblock LatticeVectors
AtomicCoordinatesFormat NotScaledCartesianAng
%block AtomicCoordinatesAndAtomicSpecies
	0.00000000	0.00000000	0.00000000  1 Si  1
	1.36000000	1.36000000	1.36000000  1 Si  2
	2.72000000	2.72000000	0.00000000  1 Si  3
	4.08000000	4.08000000	1.36000000  1 Si  4
	2.72000000	0.00000000	2.72000000  1 Si  5
	4.08000000	1.36000000	4.08000000  1 Si  6
	0.00000000	2.72000000	2.72000000  1 Si  7
	1.36000000	4.08000000	4.08000000  1 Si  8
%endblock AtomicCoordinatesAndAtomicSpecies
MeshCutoff 100.0 Ry # 100, 120, 180, 260
kgrid_cutoff 30.0 Bohr # 30, 35, 40, 45
DM.Mixingweight  0.3
DM.NumberPulay    3
DM.Tolerance      1.d-3
DM.UseSaveDM      true
ElectronicTemperature 25 meV
SolutionMethod    diagon
XC.functional     LDA	    # Local Density Approximation
XC.authors        CA           # Ceperley-Alder
SpinPolarized     false
MD.TypeOfRun           CG           # Type of dynamics:
MD.VariableCell        true
MD.NumCGsteps          100          # Number of CG steps for coordinate optimization
MD.MaxCGDispl          0.2 Bohr     # Maximum atomic displacement
                                    #   in one CG step (Bohr)
MD.MaxForceTol         0.04 eV/Ang  # Tolerance in the maximum
                                    #   atomic force (Ry/Bohr)
				
##Output Specification##
WriteMDhistory         true         # Trajectory information
WriteCoorStep          true
WriteCoorXmol          true
WriteMDXmol            true
WriteEigenvalues true
WriteKbands      true
WriteBands       true
WriteWaveFunctions true
WriteMullikenPoP   1
%block BandLines
1	1.000	1.000 1.000 L
25	0.000	0.000	0.000 \Gamma
30	2.000	0.000	0.000 X
10	2.000	0.500	0.500 U
35	0.000	0.000	0.000 \Gamma
%endblock BandLines
%block WaveFuncKPoints
0.0 0.0 0.0 from 1 to 50 # > 16 = 4/2*8 (Valenzelektronen/2, Atomzahl ...)
%endblock WaveFuncKpoints
************************** End of input data file *****************************

reinit: -----------------------------------------------------------------------
reinit: System Name: silicon
reinit: -----------------------------------------------------------------------
reinit: System Label: si                                                          
reinit: -----------------------------------------------------------------------

                           ***********************       
                           *  WELCOME TO SIESTA  *       
                           ***********************       

reinit: Reading from standard input
************************** Dump of input data file ****************************
************************** End of input data file *****************************

reinit: -----------------------------------------------------------------------
reinit: System Name: 
reinit: -----------------------------------------------------------------------
reinit: System Label: siesta                                                      
reinit: -----------------------------------------------------------------------

initatom: Reading input for the pseudopotentials and atomic orbitals ----------
No species found!!!
ERROR STOP from Node:    0

initatom: Reading input for the pseudopotentials and atomic orbitals ----------
 Species number:            1  Label: Si Atomic number:          14
Ground state valence configuration:   3s02  3p02
Reading pseudopotential information in formatted form from Si.psf

Valence configuration for pseudopotential generation:
3s( 2.00) rc: 1.75
3p( 2.00) rc: 1.94
3d( 0.00) rc: 2.09
4f( 0.00) rc: 2.09
For Si, standard SIESTA heuristics set lmxkb to 3
 (one more than the basis l, including polarization orbitals).
Use PS.lmax or PS.KBprojectors blocks to override.

<basis_specs>
===============================================================================
Si                   Z=  14    Mass=  28.090        Charge= 0.17977+309
Lmxo=1 Lmxkb= 3    BasisType=split      Semic=F
L=0  Nsemic=0  Cnfigmx=3
          n=1  nzeta=2  polorb=0
            splnorm:   0.15000    
               vcte:    0.0000    
               rinn:    0.0000    
                rcs:    0.0000      0.0000    
            lambdas:    1.0000      1.0000    
L=1  Nsemic=0  Cnfigmx=3
          n=1  nzeta=2  polorb=1
            splnorm:   0.15000    
               vcte:    0.0000    
               rinn:    0.0000    
                rcs:    0.0000      0.0000    
            lambdas:    1.0000      1.0000    
-------------------------------------------------------------------------------
L=0  Nkbl=1  erefs: 0.17977+309
L=1  Nkbl=1  erefs: 0.17977+309
L=2  Nkbl=1  erefs: 0.17977+309
L=3  Nkbl=1  erefs: 0.17977+309
===============================================================================
</basis_specs>

atom: Called for Si                    (Z =  14)

read_vps: Pseudopotential generation method:
read_vps: ATM3      Troullier-Martins                       
Total valence charge:    4.00000

xc_check: Exchange-correlation functional:
xc_check: Ceperley-Alder
V l=0 = -2*Zval/r beyond r=  2.5494
V l=1 = -2*Zval/r beyond r=  2.5494
V l=2 = -2*Zval/r beyond r=  2.5494
V l=3 = -2*Zval/r beyond r=  2.5494
All V_l potentials equal beyond r=  2.0613
This should be close to max(r_c) in ps generation
All pots = -2*Zval/r beyond r=  2.5494

VLOCAL1: 99.0% of the norm of Vloc inside     10.216 Ry
VLOCAL1: 99.9% of the norm of Vloc inside     23.282 Ry
atom: Maximum radius for 4*pi*r*r*local-pseudopot. charge    2.45560
atom: Maximum radius for r*vlocal+2*Zval:    2.14012
GHOST: No ghost state for L =  0
GHOST: No ghost state for L =  1
GHOST: No ghost state for L =  2
GHOST: No ghost state for L =  3

KBgen: Kleinman-Bylander projectors: 
   l= 0   rc=  2.782581   el= -0.796617   Ekb=  4.840502   kbcos=  0.288423
   l= 1   rc=  2.888916   el= -0.307040   Ekb=  1.512733   kbcos=  0.296968
   l= 2   rc=  2.962054   el=  0.002313   Ekb= -2.156507   kbcos= -0.061834
   l= 3   rc=  3.192765   el=  0.003402   Ekb= -0.600958   kbcos= -0.007408

KBgen: Total number of  Kleinman-Bylander projectors:   16
atom: -------------------------------------------------------------------------

atom: SANKEY-TYPE ORBITALS:
atom: Selected multiple-zeta basis: split     

SPLIT: Orbitals with angular momentum L= 0

SPLIT: Basis orbitals for state 3s

SPLIT: PAO cut-off radius determined from an
SPLIT: energy shift=  0.003675 Ry

   izeta = 1
                 lambda =    1.000000
                     rc =    6.116033
                 energy =   -0.793486
                kinetic =    0.528761
    potential(screened) =   -1.322246
       potential(ionic) =   -3.766038

   izeta = 2
                 rmatch =    4.530823
              splitnorm =    0.150000
                 energy =   -0.697320
                kinetic =    0.853435
    potential(screened) =   -1.550756
       potential(ionic) =   -4.120809

SPLIT: Orbitals with angular momentum L= 1

SPLIT: Basis orbitals for state 3p

SPLIT: PAO cut-off radius determined from an
SPLIT: energy shift=  0.003675 Ry

   izeta = 1
                 lambda =    1.000000
                     rc =    7.853192
                 energy =   -0.303674
                kinetic =    0.798475
    potential(screened) =   -1.102149
       potential(ionic) =   -3.307324

   izeta = 2
                 rmatch =    5.397360
              splitnorm =    0.150000
                 energy =   -0.229357
                kinetic =    1.170483
    potential(screened) =   -1.399841
       potential(ionic) =   -3.814095

POLgen: Perturbative polarization orbital with L=  2

POLgen: Polarization orbital for state 3p

   izeta = 1
                     rc =    7.853192
                 energy =    0.331669
                kinetic =    1.088595
    potential(screened) =   -0.756926
       potential(ionic) =   -2.714870
atom: Total number of Sankey-type orbitals: 13

atm_pop: Valence configuration (for local Pseudopot. screening):
 3s( 2.00)                                                            
 3p( 2.00)                                                            
Vna: chval, zval:    4.00000   4.00000

Vna:  Cut-off radius for the neutral-atom potential:   7.853192

atom: _________________________________________________________________________

prinput: Basis input ----------------------------------------------------------

PAO.BasisType split     

%block ChemicalSpeciesLabel
    1   14 Si                      # Species index, atomic number, species label
%endblock ChemicalSpeciesLabel

%block PAO.Basis                 # Define Basis set
Si                    2                    # Species label, number of l-shells
 n=3   0   2                         # n, l, Nzeta 
   6.116      4.531   
   1.000      1.000   
 n=3   1   2 P   1                   # n, l, Nzeta, Polarization, NzetaPol
   7.853      5.397   
   1.000      1.000   
%endblock PAO.Basis

prinput: ----------------------------------------------------------------------

coor:   Atomic-coordinates input format  =     Cartesian coordinates
coor:                                          (in Angstroms)

siesta: Atomic coordinates (Bohr) and species
siesta:      0.00000   0.00000   0.00000  1        1
siesta:      2.57003   2.57003   2.57003  1        2
siesta:      5.14006   5.14006   0.00000  1        3
siesta:      7.71009   7.71009   2.57003  1        4
siesta:      5.14006   0.00000   5.14006  1        5
siesta:      7.71009   2.57003   7.71009  1        6
siesta:      0.00000   5.14006   5.14006  1        7
siesta:      2.57003   7.71009   7.71009  1        8

siesta: System type = bulk      

initatomlists: Number of atoms, orbitals, and projectors:      8   104   128

siesta: ******************** Simulation parameters ****************************
siesta:
siesta: The following are some of the parameters of the simulation.
siesta: A complete list of the parameters used, including default values,
siesta: can be found in file out.fdf
siesta:
redata: Non-Collinear-spin run           =     F
redata: SpinPolarized (Up/Down) run      =     F
redata: Number of spin components        =     1
redata: Long output                      =     F
redata: Number of Atomic Species         =        1
redata: Charge density info will appear in .RHO file
redata: Write Mulliken Pop.              =     Atomic and Orbital charges
redata: Mesh Cutoff                      =   100.0000  Ry
redata: Net charge of the system         =     0.0000 |e|
redata: Max. number of SCF Iter          =       50
redata: Performing Pulay mixing using    =     3 iterations
redata: Mix DM in first SCF step ?       =     F
redata: Write Pulay info on disk?        =     F
redata: Discard 1st Pulay DM after  kick =     F
redata: New DM Mixing Weight             =     0.3000
redata: New DM Occupancy tolerance       = 0.000000000001
redata: No kicks to SCF
redata: DM Mixing Weight for Kicks       =     0.5000
redata: DM Tolerance for SCF             =     0.001000
redata: Require Energy convergence for SCF =     F
redata: DM Energy tolerance for SCF      =     0.000100 eV
redata: Require Harris convergence for SCF =     F
redata: DM Harris energy tolerance for SCF =     0.000100 eV
redata: Using Saved Data (generic)   =     F
redata: Use continuation files for DM    =     T
redata: Neglect nonoverlap interactions  =     F
redata: Method of Calculation            =     Diagonalization
redata: Divide and Conquer               =     T
redata: Electronic Temperature           =     0.0018  Ry
redata: Fix the spin of the system       =     F
redata: Dynamics option                  =     CG coord. optimization
redata: Variable cell                    =     T
redata: Use continuation files for CG    =     F
redata: Max atomic displ per move        =     0.2000  Bohr
redata: Maximum number of CG moves       =      100
redata: Force tolerance                  =     0.0016  Ry/Bohr
redata: Stress tolerance                 =     1.0000  GPa
redata: ***********************************************************************
Total number of electrons:    32.000000
Total ionic charge:    32.000000
 Kpoints in:          196 . Kpoints trimmed:          172

siesta: k-grid: Number of k-points =   172
siesta: k-grid: Cutoff (effective) =    17.325 Ang
siesta: k-grid: Supercell and displacements
siesta: k-grid:    0   7   0      0.000
siesta: k-grid:    0   0   7      0.000
siesta: k-grid:    7   0   0      0.000
Naive supercell factors:     5    5    5

superc: Internal auxiliary supercell:     5 x     5 x     5  =     125
superc: Number of atoms, orbitals, and projectors:   1000  13000  16000

* Maximum dynamic memory allocated =     2 MB

siesta:                 ==============================
                            Begin CG move =      0
                        ==============================

outcoor: Atomic coordinates (Ang):                          
    0.00000000    0.00000000    0.00000000   1       1  Si
    1.36000000    1.36000000    1.36000000   1       2  Si
    2.72000000    2.72000000    0.00000000   1       3  Si
    4.08000000    4.08000000    1.36000000   1       4  Si
    2.72000000    0.00000000    2.72000000   1       5  Si
    4.08000000    1.36000000    4.08000000   1       6  Si
    0.00000000    2.72000000    2.72000000   1       7  Si
    1.36000000    4.08000000    4.08000000   1       8  Si

superc: Internal auxiliary supercell:     5 x     5 x     5  =     125
superc: Number of atoms, orbitals, and projectors:   1000  13000  16000

outcell: Unit cell vectors (Ang):
        4.950000    0.000000    0.000000
        0.000000    4.950000    0.000000
        0.000000    0.000000    4.950000

outcell: Cell vector modules (Ang)   :    4.950000    4.950000    4.950000
outcell: Cell angles (23,13,12) (deg):     90.0000     90.0000     90.0000
outcell: Cell volume (Ang**3)        :    121.2874
New_DM. Step:     1
Initializing Density Matrix...

InitMesh: MESH =    30 x    30 x    30 =       27000
InitMesh: Mesh cutoff (required, used) =   100.000   101.516 Ry

* Maximum dynamic memory allocated =    78 MB

stepf: Fermi-Dirac step function

siesta: Program's energy decomposition (eV):
siesta: Ebs     =      -404.914489
siesta: Eions   =      1510.441798
siesta: Ena     =       444.967173
siesta: Ekin    =       288.938730
siesta: Enl     =       153.998850
siesta: DEna    =         0.000001
siesta: DUscf   =         0.000000
siesta: DUext   =         0.000000
siesta: Exc     =      -271.399451
siesta: eta*DQ  =         0.000000
siesta: Emadel  =         0.000000
siesta: Emeta   =         0.000000
siesta: Emolmec =         0.000000
siesta: Ekinion =         0.000000
siesta: Eharris =      -851.571808
siesta: Etot    =      -893.936495
siesta: FreeEng =      -893.936495

siesta: iscf   Eharris(eV)      E_KS(eV)   FreeEng(eV)   dDmax  Ef(eV)
siesta:    1     -851.5718     -893.9365     -893.9365  1.6173 -6.4269
timer: Routine,Calls,Time,% = IterSCF        1      34.730  97.78
elaps: Routine,Calls,Wall,% = IterSCF        1      35.188  97.80
siesta:    2     -851.3457     -850.0866     -850.0900  0.2973 -5.9425
siesta:    3     -850.6396     -856.5408     -856.5439  0.2514 -6.1241
siesta:    4     -850.6356     -851.7737     -851.7762  0.0595 -6.1206
siesta:    5     -850.6340     -850.5405     -850.5430  0.0094 -6.1246
siesta:    6     -850.6338     -850.6716     -850.6741  0.0039 -6.1281
siesta:    7     -850.6338     -850.6706     -850.6731  0.0029 -6.1283
siesta:    8     -850.6337     -850.6561     -850.6586  0.0014 -6.1282
siesta:    9     -850.6337     -850.6428     -850.6453  0.0006 -6.1281

siesta: E_KS(eV) =             -850.6357

siesta: E_KS - E_eggbox =      -850.6357

siesta: Atomic forces (eV/Ang):
----------------------------------------
   Tot    0.009052    0.009040    0.008991
----------------------------------------
   Max    6.157572
   Res    4.187632    sqrt( Sum f_i^2 / 3N )
----------------------------------------
   Max    6.157572    constrained

Stress-tensor-Voigt (kbar):     -556.09     -556.09     -556.09      200.60      200.60      200.60
(Free)E + p*V (eV/cell)     -808.5414
Target enthalpy (eV/cell)     -850.6382

siesta: Stress tensor (static) (eV/Ang**3):
        -0.347083    0.125201    0.125201
         0.125201   -0.347083    0.125201
         0.125201    0.125201   -0.347083

siesta: Pressure (static):        556.09441718  kBar

siesta: Stress tensor (total) (eV/Ang**3):
        -0.347083    0.125201    0.125201
         0.125201   -0.347083    0.125201
         0.125201    0.125201   -0.347083

siesta: Pressure (total):        556.09441718  kBar

mulliken: Mulliken Atomic and Orbital Populations:

Species: Si                  
Atom  Qatom  Qorb
               3s      3s      3py     3pz     3px     3py     3pz     3px     
               3Pdxy   3Pdyz   3Pdz2   3Pdxz   3Pdx2-y2
   1  4.502   0.123   0.935   0.141   0.141   0.141   0.663   0.663   0.663
              0.208   0.208   0.204   0.208   0.204
   2  3.729   0.633   0.610  -0.010  -0.010  -0.010   0.635   0.635   0.635
              0.146   0.146   0.086   0.146   0.086
   3  3.843   0.485   0.671  -0.063   0.054  -0.063   0.702   0.646   0.702
              0.173   0.156   0.095   0.156   0.127
   4  4.080   0.346   0.754   0.025  -0.055   0.025   0.712   0.742   0.712
              0.175   0.176   0.175   0.176   0.117
   5  3.843   0.485   0.671   0.054  -0.063  -0.063   0.646   0.702   0.702
              0.156   0.156   0.119   0.173   0.103
   6  4.080   0.346   0.754  -0.055   0.025   0.025   0.742   0.712   0.712
              0.176   0.176   0.131   0.175   0.160
   7  3.843   0.485   0.671  -0.063  -0.063   0.054   0.702   0.702   0.646
              0.156   0.173   0.119   0.156   0.103
   8  4.080   0.346   0.754   0.025   0.025  -0.055   0.712   0.712   0.742
              0.176   0.175   0.131   0.176   0.160

mulliken: Qtot =       32.000

cgvc: No target stress found, assuming hydrostatic MD.TargetPressure.

cgvc: Target stress (kBar)
cgvc:        -0.000       0.000       0.000
cgvc:         0.000      -0.000       0.000
cgvc:         0.000       0.000      -0.000

* Maximum dynamic memory allocated =    80 MB

siesta:                 ==============================
                            Begin CG move =      1
                        ==============================

outcoor: Atomic coordinates (Ang):                          
    0.01366578    0.01366577    0.01366575   1       1  Si
    1.36555344    1.36555344    1.36555340   1       2  Si
    2.72874107    2.72874106    0.00184066   1       3  Si
    4.06916505    4.06916504    1.37467150   1       4  Si
    2.72874111    0.00184069    2.72874105   1       5  Si
    4.06916504    1.37467152    4.06916500   1       6  Si
    0.00184070    2.72874112    2.72874106   1       7  Si
    1.37467152    4.06916505    4.06916501   1       8  Si
 Kpoints in:          196 . Kpoints trimmed:          172

siesta: k-grid: Number of k-points =   172
siesta: k-grid: Cutoff (effective) =    17.445 Ang
siesta: k-grid: Supercell and displacements
siesta: k-grid:    0   0   7      0.000
siesta: k-grid:    7   0   0      0.000
siesta: k-grid:    0   7   0      0.000
Naive supercell factors:     5    5    5

superc: Internal auxiliary supercell:     5 x     5 x     5  =     125
superc: Number of atoms, orbitals, and projectors:   1000  13000  16000

outcell: Unit cell vectors (Ang):
        4.984307   -0.012375   -0.012375
       -0.012375    4.984307   -0.012375
       -0.012375   -0.012375    4.984307

outcell: Cell vector modules (Ang)   :    4.984337    4.984337    4.984337
outcell: Cell angles (23,13,12) (deg):     90.2842     90.2842     90.2842
outcell: Cell volume (Ang**3)        :    123.8244
New_DM. Step:     2
Re-using DM from previous geometry...
Re-using DM without extrapolation (not allowed)
Density Matrix sparsity pattern changed.

InitMesh: MESH =    30 x    30 x    30 =       27000
InitMesh: Mesh cutoff (required, used) =   100.000   100.127 Ry

siesta: iscf   Eharris(eV)      E_KS(eV)   FreeEng(eV)   dDmax  Ef(eV)
siesta:    1     -853.1942     -851.6814     -851.6839  0.1205 -6.0993
siesta:    2     -853.1999     -853.1808     -853.1845  0.0109 -6.0730
siesta:    3     -853.1882     -853.1527     -853.1563  0.0027 -6.0850
siesta:    4     -853.1879     -853.1620     -853.1656  0.0017 -6.0872
siesta:    5     -853.1879     -853.1759     -853.1795  0.0009 -6.0884

siesta: E_KS(eV) =             -853.1836

siesta: Atomic forces (eV/Ang):
----------------------------------------
   Tot    0.009009    0.009014    0.009041
----------------------------------------
   Max    4.785210
   Res    3.259639    sqrt( Sum f_i^2 / 3N )
----------------------------------------
   Max    4.785210    constrained

Stress-tensor-Voigt (kbar):     -477.74     -477.74     -477.74      156.90      156.90      156.90
(Free)E + p*V (eV/cell)     -816.2652
Target enthalpy (eV/cell)     -853.1873

siesta: Stress tensor (static) (eV/Ang**3):
        -0.298181    0.097927    0.097927
         0.097927   -0.298181    0.097927
         0.097927    0.097927   -0.298181

siesta: Pressure (static):        477.74368932  kBar

siesta: Stress tensor (total) (eV/Ang**3):
        -0.298181    0.097927    0.097927
         0.097927   -0.298181    0.097927
         0.097927    0.097927   -0.298181

siesta: Pressure (total):        477.74368932  kBar

mulliken: Mulliken Atomic and Orbital Populations:

Species: Si                  
Atom  Qatom  Qorb
               3s      3s      3py     3pz     3px     3py     3pz     3px     
               3Pdxy   3Pdyz   3Pdz2   3Pdxz   3Pdx2-y2
   1  4.344   0.181   0.868   0.071   0.071   0.071   0.708   0.708   0.708
              0.199   0.199   0.181   0.199   0.181
   2  3.772   0.646   0.596   0.016   0.016   0.016   0.628   0.628   0.628
              0.143   0.143   0.084   0.143   0.084
   3  3.883   0.496   0.661  -0.033   0.071  -0.033   0.692   0.640   0.692
              0.170   0.155   0.095   0.155   0.123
   4  4.078   0.363   0.735   0.040  -0.066   0.040   0.703   0.756   0.703
              0.171   0.177   0.167   0.177   0.113
   5  3.883   0.496   0.661   0.071  -0.033  -0.033   0.640   0.692   0.692
              0.155   0.155   0.116   0.170   0.102
   6  4.078   0.363   0.735  -0.066   0.040   0.040   0.756   0.703   0.703
              0.177   0.177   0.127   0.171   0.154
   7  3.883   0.496   0.661  -0.033  -0.033   0.071   0.692   0.692   0.640
              0.155   0.170   0.116   0.155   0.102
   8  4.078   0.363   0.735   0.040   0.040  -0.066   0.703   0.703   0.756
              0.177   0.171   0.127   0.177   0.154

mulliken: Qtot =       32.000

* Maximum dynamic memory allocated =    92 MB

siesta:                 ==============================
                            Begin CG move =      2
                        ==============================

outcoor: Atomic coordinates (Ang):                          
    0.03564057    0.03564054    0.03564048   1       1  Si
    1.37446243    1.37446241    1.37446231   1       2  Si
    2.74250743    2.74250740    0.00529514   1       3  Si
    4.05109856    4.05109854    1.39940360   1       4  Si
    2.74250753    0.00529519    2.74250738   1       5  Si
    4.05109855    1.39940365    4.05109844   1       6  Si
    0.00529524    2.74250756    2.74250739   1       7  Si
    1.39940366    4.05109857    4.05109847   1       8  Si
 Kpoints in:          196 . Kpoints trimmed:          172

siesta: k-grid: Number of k-points =   172
siesta: k-grid: Cutoff (effective) =    17.638 Ang
siesta: k-grid: Supercell and displacements
siesta: k-grid:    0   0   7      0.000
siesta: k-grid:    7   0   0      0.000
siesta: k-grid:    0   7   0      0.000
Naive supercell factors:     5    5    5

superc: Internal auxiliary supercell:     5 x     5 x     5  =     125
superc: Number of atoms, orbitals, and projectors:   1000  13000  16000

outcell: Unit cell vectors (Ang):
        5.039197   -0.032176   -0.032176
       -0.032176    5.039197   -0.032176
       -0.032176   -0.032176    5.039197

outcell: Cell vector modules (Ang)   :    5.039403    5.039403    5.039403
outcell: Cell angles (23,13,12) (deg):     90.7293     90.7293     90.7293
outcell: Cell volume (Ang**3)        :    127.9472
New_DM. Step:     3
Re-using DM from previous geometry...
Re-using DM without extrapolation (not allowed)
Density Matrix sparsity pattern changed.

InitMesh: MESH =    32 x    32 x    32 =       32768
InitMesh: Mesh cutoff (required, used) =   100.000   111.477 Ry

siesta: iscf   Eharris(eV)      E_KS(eV)   FreeEng(eV)   dDmax  Ef(eV)
siesta:    1     -856.2668     -853.9991     -854.0027  0.1416 -6.0439
siesta:    2     -856.3232     -856.1993     -856.2014  0.0444 -5.9813
siesta:    3     -856.2418     -856.1370     -856.1393  0.0054 -6.0119
siesta:    4     -856.2412     -856.2014     -856.2036  0.0021 -6.0162
siesta:    5     -856.2411     -856.2357     -856.2380  0.0008 -6.0174

siesta: E_KS(eV) =             -856.2429

siesta: Atomic forces (eV/Ang):
----------------------------------------
   Tot    0.006859    0.006860    0.006864
----------------------------------------
   Max    3.627226
   Res    2.213804    sqrt( Sum f_i^2 / 3N )
----------------------------------------
   Max    3.627226    constrained

Stress-tensor-Voigt (kbar):     -373.61     -373.61     -373.61       98.58       98.58       98.58
(Free)E + p*V (eV/cell)     -826.4094
Target enthalpy (eV/cell)     -856.2452

siesta: Stress tensor (static) (eV/Ang**3):
        -0.233188    0.061525    0.061525
         0.061525   -0.233188    0.061525
         0.061525    0.061525   -0.233188

siesta: Pressure (static):        373.61261670  kBar

siesta: Stress tensor (total) (eV/Ang**3):
        -0.233188    0.061525    0.061525
         0.061525   -0.233188    0.061525
         0.061525    0.061525   -0.233188

siesta: Pressure (total):        373.61261670  kBar

mulliken: Mulliken Atomic and Orbital Populations:

Species: Si                  
Atom  Qatom  Qorb
               3s      3s      3py     3pz     3px     3py     3pz     3px     
               3Pdxy   3Pdyz   3Pdz2   3Pdxz   3Pdx2-y2
   1  4.151   0.280   0.786   0.015   0.015   0.015   0.731   0.731   0.731
              0.183   0.183   0.148   0.183   0.148
   2  3.838   0.655   0.584   0.059   0.059   0.059   0.613   0.613   0.613
              0.139   0.139   0.083   0.139   0.083
   3  3.940   0.509   0.648   0.016   0.085   0.016   0.673   0.638   0.673
              0.164   0.153   0.095   0.153   0.116
   4  4.064   0.392   0.710   0.062  -0.067   0.062   0.685   0.760   0.685
              0.165   0.174   0.153   0.174   0.107
   5  3.940   0.509   0.648   0.085   0.016   0.016   0.638   0.673   0.673
              0.153   0.153   0.111   0.164   0.100
   6  4.064   0.392   0.710  -0.067   0.062   0.062   0.760   0.685   0.685
              0.174   0.174   0.119   0.165   0.142
   7  3.940   0.509   0.648   0.016   0.016   0.085   0.673   0.673   0.638
              0.153   0.164   0.111   0.153   0.100
   8  4.064   0.392   0.710   0.062   0.062  -0.067   0.685   0.685   0.760
              0.174   0.165   0.119   0.174   0.142

mulliken: Qtot =       32.000

* Maximum dynamic memory allocated =    93 MB

siesta:                 ==============================
                            Begin CG move =      3
                        ==============================

outcoor: Atomic coordinates (Ang):                          
    0.07108065    0.07108059    0.07108046   1       1  Si
    1.38877688    1.38877685    1.38877664   1       2  Si
    2.76397206    2.76397199    0.01212640   1       3  Si
    4.02032196    4.02032192    1.44219469   1       4  Si
    2.76397226    0.01212650    2.76397195   1       5  Si
    4.02032194    1.44219480    4.02032172   1       6  Si
    0.01212660    2.76397232    2.76397197   1       7  Si
    1.44219482    4.02032197    4.02032177   1       8  Si
 Kpoints in:          196 . Kpoints trimmed:          172

siesta: k-grid: Number of k-points =   172
siesta: k-grid: Cutoff (effective) =    17.947 Ang
siesta: k-grid: Supercell and displacements
siesta: k-grid:    0   0   7      0.000
siesta: k-grid:    7   0   0      0.000
siesta: k-grid:    0   7   0      0.000
Naive supercell factors:     5    5    5

superc: Internal auxiliary supercell:     5 x     5 x     5  =     125
superc: Number of atoms, orbitals, and projectors:   1000  13000  16000

outcell: Unit cell vectors (Ang):
        5.127023   -0.063856   -0.063856
       -0.063856    5.127023   -0.063856
       -0.063856   -0.063856    5.127023

outcell: Cell vector modules (Ang)   :    5.127818    5.127818    5.127818
outcell: Cell angles (23,13,12) (deg):     91.4180     91.4180     91.4180
outcell: Cell volume (Ang**3)        :    134.7075
New_DM. Step:     4
Re-using DM from previous geometry...
Re-using DM without extrapolation (not allowed)
Density Matrix sparsity pattern changed.

InitMesh: MESH =    32 x    32 x    32 =       32768
InitMesh: Mesh cutoff (required, used) =   100.000   107.766 Ry

siesta: iscf   Eharris(eV)      E_KS(eV)   FreeEng(eV)   dDmax  Ef(eV)
siesta:    1     -859.1856     -856.0480     -856.0502  0.1414 -5.8736
siesta:    2     -859.5298     -858.8239     -858.8250  0.1082 -5.7970
siesta:    3     -859.0647     -858.5853     -858.5863  0.0250 -5.8305
siesta:    4     -859.0616     -858.9599     -858.9609  0.0041 -5.8353
siesta:    5     -859.0616     -858.9953     -858.9963  0.0025 -5.8352
siesta:    6     -859.0615     -859.0481     -859.0492  0.0005 -5.8350

siesta: E_KS(eV) =             -859.0537

siesta: Atomic forces (eV/Ang):
----------------------------------------
   Tot    0.008273    0.008271    0.008273
----------------------------------------
   Max    3.250433
   Res    1.459764    sqrt( Sum f_i^2 / 3N )
----------------------------------------
   Max    3.250433    constrained

Stress-tensor-Voigt (kbar):     -250.48     -250.48     -250.48       30.99       30.99       30.99
(Free)E + p*V (eV/cell)     -837.9948
Target enthalpy (eV/cell)     -859.0548

siesta: Stress tensor (static) (eV/Ang**3):
        -0.156338    0.019345    0.019345
         0.019345   -0.156338    0.019345
         0.019345    0.019345   -0.156338

siesta: Pressure (static):        250.48392161  kBar

siesta: Stress tensor (total) (eV/Ang**3):
        -0.156338    0.019345    0.019345
         0.019345   -0.156338    0.019345
         0.019345    0.019345   -0.156338

siesta: Pressure (total):        250.48392161  kBar

mulliken: Mulliken Atomic and Orbital Populations:

Species: Si                  
Atom  Qatom  Qorb
               3s      3s      3py     3pz     3px     3py     3pz     3px     
               3Pdxy   3Pdyz   3Pdz2   3Pdxz   3Pdx2-y2
   1  3.979   0.453   0.675   0.028   0.028   0.028   0.689   0.689   0.689
              0.159   0.159   0.112   0.159   0.112
   2  3.912   0.660   0.572   0.106   0.106   0.106   0.598   0.598   0.598
              0.135   0.135   0.080   0.135   0.080
   3  4.000   0.517   0.637   0.083   0.083   0.083   0.643   0.648   0.643
              0.156   0.151   0.099   0.151   0.104
   4  4.037   0.447   0.676   0.095  -0.046   0.095   0.656   0.742   0.656
              0.156   0.165   0.131   0.165   0.099
   5  4.000   0.517   0.637   0.083   0.083   0.083   0.648   0.643   0.643
              0.151   0.151   0.103   0.156   0.100
   6  4.037   0.447   0.676  -0.046   0.095   0.095   0.742   0.656   0.656
              0.165   0.165   0.107   0.156   0.123
   7  4.000   0.517   0.637   0.083   0.083   0.083   0.643   0.643   0.648
              0.151   0.156   0.103   0.151   0.100
   8  4.037   0.447   0.676   0.095   0.095  -0.046   0.656   0.656   0.742
              0.165   0.156   0.107   0.165   0.123

mulliken: Qtot =       32.000

* Maximum dynamic memory allocated =    98 MB

siesta:                 ==============================
                            Begin CG move =      4
                        ==============================

outcoor: Atomic coordinates (Ang):                          
    0.11381279    0.11381269    0.11381248   1       1  Si
    1.40595101    1.40595096    1.40595062   1       2  Si
    2.78867563    2.78867551    0.02237585   1       3  Si
    3.98059378    3.98059371    1.49842910   1       4  Si
    2.78867596    0.02237602    2.78867545   1       5  Si
    3.98059376    1.49842929    3.98059339   1       6  Si
    0.02237618    2.78867604    2.78867548   1       7  Si
    1.49842931    3.98059380    3.98059348   1       8  Si
 Kpoints in:          196 . Kpoints trimmed:          172

siesta: k-grid: Number of k-points =   172
siesta: k-grid: Cutoff (effective) =    18.318 Ang
siesta: k-grid: Supercell and displacements
siesta: k-grid:    0   0   7      0.000
siesta: k-grid:    7   0   0      0.000
siesta: k-grid:    0   7   0      0.000
Naive supercell factors:     5    5    5

superc: Internal auxiliary supercell:     5 x     5 x     5  =     125
superc: Number of atoms, orbitals, and projectors:   1000  13000  16000

outcell: Unit cell vectors (Ang):
        5.231800   -0.101652   -0.101652
       -0.101652    5.231800   -0.101652
       -0.101652   -0.101652    5.231800

outcell: Cell vector modules (Ang)   :    5.233774    5.233774    5.233774
outcell: Cell angles (23,13,12) (deg):     92.2037     92.2037     92.2037
outcell: Cell volume (Ang**3)        :    143.0391
New_DM. Step:     5
Re-using DM from previous geometry...
Re-using DM without extrapolation (not allowed)
Density Matrix sparsity pattern changed.

InitMesh: MESH =    32 x    32 x    32 =       32768
InitMesh: Mesh cutoff (required, used) =   100.000   103.636 Ry

siesta: iscf   Eharris(eV)      E_KS(eV)   FreeEng(eV)   dDmax  Ef(eV)
siesta:    1     -860.4310     -857.5520     -857.5530  0.1054 -5.7868
siesta:    2     -861.3706     -859.5038     -859.5050  0.1392 -5.8539
siesta:    3     -860.1223     -859.2327     -859.2348  0.0385 -5.7862
siesta:    4     -860.1208     -859.9054     -859.9069  0.0039 -5.7890
siesta:    5     -860.1206     -859.9872     -859.9886  0.0026 -5.7878
siesta:    6     -860.1205     -860.0770     -860.0784  0.0009 -5.7862

siesta: E_KS(eV) =             -860.0970

siesta: Atomic forces (eV/Ang):
----------------------------------------
   Tot    0.004270    0.004272    0.004283
----------------------------------------
   Max    2.428351
   Res    1.386153    sqrt( Sum f_i^2 / 3N )
----------------------------------------
   Max    2.428351    constrained

Stress-tensor-Voigt (kbar):     -156.05     -156.05     -156.05      -21.83      -21.83      -21.83
(Free)E + p*V (eV/cell)     -846.1670
Target enthalpy (eV/cell)     -860.0984

siesta: Stress tensor (static) (eV/Ang**3):
        -0.097396   -0.013624   -0.013624
        -0.013624   -0.097396   -0.013624
        -0.013624   -0.013624   -0.097396

siesta: Pressure (static):        156.04701712  kBar

siesta: Stress tensor (total) (eV/Ang**3):
        -0.097396   -0.013624   -0.013624
        -0.013624   -0.097396   -0.013624
        -0.013624   -0.013624   -0.097396

siesta: Pressure (total):        156.04701712  kBar

mulliken: Mulliken Atomic and Orbital Populations:

Species: Si                  
Atom  Qatom  Qorb
               3s      3s      3py     3pz     3px     3py     3pz     3px     
               3Pdxy   3Pdyz   3Pdz2   3Pdxz   3Pdx2-y2
   1  3.948   0.633   0.583   0.140   0.140   0.140   0.582   0.582   0.582
              0.133   0.133   0.084   0.133   0.084
   2  3.968   0.641   0.579   0.154   0.154   0.154   0.575   0.575   0.575
              0.134   0.134   0.079   0.134   0.079
   3  4.018   0.501   0.646   0.147   0.055   0.147   0.606   0.666   0.606
              0.148   0.150   0.106   0.150   0.091
   4  4.010   0.506   0.644   0.140   0.036   0.140   0.612   0.674   0.612
              0.145   0.150   0.110   0.150   0.091
   5  4.018   0.501   0.646   0.055   0.147   0.147   0.666   0.606   0.606
              0.150   0.150   0.095   0.148   0.103
   6  4.010   0.506   0.644   0.036   0.140   0.140   0.674   0.612   0.612
              0.150   0.150   0.096   0.145   0.105
   7  4.018   0.501   0.646   0.147   0.147   0.055   0.606   0.606   0.666
              0.150   0.148   0.095   0.150   0.103
   8  4.010   0.506   0.644   0.140   0.140   0.036   0.612   0.612   0.674
              0.150   0.145   0.096   0.150   0.105

mulliken: Qtot =       32.000

* Maximum dynamic memory allocated =    98 MB

siesta:                 ==============================
                            Begin CG move =      5
                        ==============================

outcoor: Atomic coordinates (Ang):                          
    0.15703615    0.15703601    0.15703571   1       1  Si
    1.42323038    1.42323032    1.42322984   1       2  Si
    2.81239551    2.81239535    0.03490973   1       3  Si
    3.93758943    3.93758934    1.56030365   1       4  Si
    2.81239597    0.03490997    2.81239525   1       5  Si
    3.93758941    1.56030391    3.93758889   1       6  Si
    0.03491019    2.81239609    2.81239529   1       7  Si
    1.56030394    3.93758946    3.93758901   1       8  Si
 Kpoints in:          108 . Kpoints trimmed:          108

siesta: k-grid: Number of k-points =   108
siesta: k-grid: Cutoff (effective) =    16.021 Ang
siesta: k-grid: Supercell and displacements
siesta: k-grid:    0   0   6      0.500
siesta: k-grid:    6   0   0      0.500
siesta: k-grid:    0   6   0      0.500
Naive supercell factors:     5    5    5

superc: Internal auxiliary supercell:     5 x     5 x     5  =     125
superc: Number of atoms, orbitals, and projectors:   1000  13000  16000

outcell: Unit cell vectors (Ang):
        5.336577   -0.139448   -0.139448
       -0.139448    5.336577   -0.139448
       -0.139448   -0.139448    5.336577

outcell: Cell vector modules (Ang)   :    5.340219    5.340219    5.340219
outcell: Cell angles (23,13,12) (deg):     92.9525     92.9525     92.9525
outcell: Cell volume (Ang**3)        :    151.6639
New_DM. Step:     6
Re-using DM from previous geometry...
Re-using DM without extrapolation (not allowed)
Density Matrix sparsity pattern changed.

InitMesh: MESH =    36 x    36 x    36 =       46656
InitMesh: Mesh cutoff (required, used) =   100.000   126.306 Ry

siesta: iscf   Eharris(eV)      E_KS(eV)   FreeEng(eV)   dDmax  Ef(eV)
siesta:    1     -860.0103     -858.1391     -858.1405  0.0968 -5.7816
siesta:    2     -861.5094     -858.7513     -858.7526  0.1244 -5.7087
siesta:    3     -859.6070     -858.8032     -858.8095  0.0397 -5.8138
siesta:    4     -859.6059     -859.2787     -859.2803  0.0086 -5.8195
siesta:    5     -859.6054     -859.4270     -859.4285  0.0035 -5.8207
siesta:    6     -859.6052     -859.5390     -859.5406  0.0010 -5.8181

siesta: E_KS(eV) =             -859.5750

siesta: Atomic forces (eV/Ang):
----------------------------------------
   Tot   -0.006859   -0.006849   -0.006851
----------------------------------------
   Max    2.107606
   Res    1.451448    sqrt( Sum f_i^2 / 3N )
----------------------------------------
   Max    2.107606    constrained

Stress-tensor-Voigt (kbar):      -96.48      -96.48      -96.48      -56.32      -56.32      -56.32
(Free)E + p*V (eV/cell)     -850.4442
Target enthalpy (eV/cell)     -859.5766

siesta: Stress tensor (static) (eV/Ang**3):
        -0.060214   -0.035151   -0.035151
        -0.035151   -0.060214   -0.035151
        -0.035151   -0.035151   -0.060214

siesta: Pressure (static):         96.47523694  kBar

siesta: Stress tensor (total) (eV/Ang**3):
        -0.060214   -0.035151   -0.035151
        -0.035151   -0.060214   -0.035151
        -0.035151   -0.035151   -0.060214

siesta: Pressure (total):         96.47523694  kBar

mulliken: Mulliken Atomic and Orbital Populations:

Species: Si                  
Atom  Qatom  Qorb
               3s      3s      3py     3pz     3px     3py     3pz     3px     
               3Pdxy   3Pdyz   3Pdz2   3Pdxz   3Pdx2-y2
   1  4.035   0.811   0.508   0.294   0.294   0.294   0.457   0.457   0.457
              0.110   0.110   0.066   0.110   0.066
   2  4.007   0.610   0.598   0.180   0.180   0.180   0.564   0.564   0.564
              0.137   0.137   0.079   0.137   0.079
   3  4.007   0.486   0.655   0.196   0.005   0.196   0.569   0.689   0.569
              0.140   0.150   0.123   0.150   0.080
   4  3.979   0.549   0.624   0.172   0.100   0.172   0.577   0.616   0.577
              0.135   0.136   0.098   0.136   0.088
   5  4.007   0.486   0.655   0.005   0.196   0.196   0.689   0.569   0.569
              0.150   0.150   0.091   0.140   0.112
   6  3.979   0.549   0.624   0.100   0.172   0.172   0.616   0.577   0.577
              0.136   0.136   0.090   0.135   0.095
   7  4.007   0.486   0.655   0.196   0.196   0.005   0.569   0.569   0.689
              0.150   0.140   0.091   0.150   0.112
   8  3.979   0.549   0.624   0.172   0.172   0.100   0.577   0.577   0.616
              0.136   0.135   0.090   0.136   0.095

mulliken: Qtot =       32.000

* Maximum dynamic memory allocated =    98 MB

siesta:                 ==============================
                            Begin CG move =      6
                        ==============================

outcoor: Atomic coordinates (Ang):                          
    0.12278319    0.12278308    0.12278285   1       1  Si
    1.40954462    1.40954457    1.40954420   1       2  Si
    2.79370176    2.79370163    0.02480035   1       3  Si
    3.97189881    3.97189874    1.51086297   1       4  Si
    2.79370211    0.02480054    2.79370156   1       5  Si
    3.97189879    1.51086317    3.97189839   1       6  Si
    0.02480071    2.79370221    2.79370160   1       7  Si
    1.51086319    3.97189883    3.97189848   1       8  Si
 Kpoints in:          196 . Kpoints trimmed:          172

siesta: k-grid: Number of k-points =   172
siesta: k-grid: Cutoff (effective) =    18.396 Ang
siesta: k-grid: Supercell and displacements
siesta: k-grid:    0   0   7      0.000
siesta: k-grid:    7   0   0      0.000
siesta: k-grid:    0   7   0      0.000
Naive supercell factors:     5    5    5

superc: Internal auxiliary supercell:     5 x     5 x     5  =     125
superc: Number of atoms, orbitals, and projectors:   1000  13000  16000

outcell: Unit cell vectors (Ang):
        5.253643   -0.109531   -0.109532
       -0.109531    5.253643   -0.109532
       -0.109532   -0.109532    5.253643

outcell: Cell vector modules (Ang)   :    5.255926    5.255926    5.255926
outcell: Cell angles (23,13,12) (deg):     92.3628     92.3628     92.3628
outcell: Cell volume (Ang**3)        :    144.8129
New_DM. Step:     7
Re-using DM from previous geometry...
Re-using DM without extrapolation (not allowed)
Density Matrix sparsity pattern changed.

InitMesh: MESH =    32 x    32 x    32 =       32768
InitMesh: Mesh cutoff (required, used) =   100.000   102.812 Ry

siesta: iscf   Eharris(eV)      E_KS(eV)   FreeEng(eV)   dDmax  Ef(eV)
siesta:    1     -860.3097     -860.8516     -860.8532  0.0808 -5.8586
siesta:    2     -860.8918     -859.7344     -859.7361  0.1144 -5.8315
siesta:    3     -860.1178     -860.1905     -860.1915  0.0286 -5.8115
siesta:    4     -860.1167     -860.0231     -860.0246  0.0053 -5.8076
siesta:    5     -860.1166     -860.0464     -860.0480  0.0032 -5.8080
siesta:    6     -860.1166     -860.0972     -860.0987  0.0005 -5.8090

siesta: E_KS(eV) =             -860.1074

siesta: Atomic forces (eV/Ang):
----------------------------------------
   Tot    0.013181    0.013174    0.013096
----------------------------------------
   Max    2.404872
   Res    1.401428    sqrt( Sum f_i^2 / 3N )
----------------------------------------
   Max    2.404872    constrained

Stress-tensor-Voigt (kbar):     -141.03     -141.03     -141.03      -30.55      -30.55      -30.55
(Free)E + p*V (eV/cell)     -847.3621
Target enthalpy (eV/cell)     -860.1090

siesta: Stress tensor (static) (eV/Ang**3):
        -0.088023   -0.019067   -0.019068
        -0.019067   -0.088023   -0.019068
        -0.019068   -0.019068   -0.088023

siesta: Pressure (static):        141.03012205  kBar

siesta: Stress tensor (total) (eV/Ang**3):
        -0.088023   -0.019067   -0.019068
        -0.019067   -0.088023   -0.019068
        -0.019068   -0.019068   -0.088023

siesta: Pressure (total):        141.03012205  kBar

mulliken: Mulliken Atomic and Orbital Populations:

Species: Si                  
Atom  Qatom  Qorb
               3s      3s      3py     3pz     3px     3py     3pz     3px     
               3Pdxy   3Pdyz   3Pdz2   3Pdxz   3Pdx2-y2
   1  3.959   0.670   0.566   0.169   0.169   0.169   0.558   0.558   0.558
              0.128   0.128   0.079   0.128   0.079
   2  3.977   0.638   0.580   0.159   0.159   0.159   0.573   0.573   0.573
              0.135   0.135   0.079   0.135   0.079
   3  4.016   0.498   0.648   0.158   0.043   0.158   0.598   0.672   0.598
              0.146   0.150   0.109   0.150   0.089
   4  4.005   0.518   0.639   0.149   0.050   0.149   0.603   0.661   0.603
              0.142   0.146   0.107   0.146   0.090
   5  4.016   0.498   0.648   0.043   0.158   0.158   0.672   0.598   0.598
              0.150   0.150   0.094   0.146   0.104
   6  4.005   0.518   0.639   0.050   0.149   0.149   0.661   0.603   0.603
              0.146   0.146   0.094   0.142   0.102
   7  4.016   0.498   0.648   0.158   0.158   0.043   0.598   0.598   0.672
              0.150   0.146   0.094   0.150   0.104
   8  4.005   0.518   0.639   0.149   0.149   0.050   0.603   0.603   0.661
              0.146   0.142   0.094   0.146   0.102

mulliken: Qtot =       32.000

cgvc: Finished line minimization    1.  Mean atomic displacement =    0.1816

* Maximum dynamic memory allocated =   101 MB

siesta:                 ==============================
                            Begin CG move =      7
                        ==============================

outcoor: Atomic coordinates (Ang):                          
    0.12456978    0.12456974    0.12456966   1       1  Si
    1.45976770    1.45976754    1.45976792   1       2  Si
    2.81349447    2.81349443    0.12617147   1       3  Si
    4.07518888    4.07518882    1.49272800   1       4  Si
    2.81349614    0.12617143    2.81349420   1       5  Si
    4.07518911    1.49272779    4.07518895   1       6  Si
    0.12617163    2.81349617    2.81349441   1       7  Si
    1.49272786    4.07518911    4.07518912   1       8  Si
 Kpoints in:          108 . Kpoints trimmed:          108

siesta: k-grid: Number of k-points =   108
siesta: k-grid: Cutoff (effective) =    16.081 Ang
siesta: k-grid: Supercell and displacements
siesta: k-grid:    0   0   6      0.500
siesta: k-grid:    6   0   0      0.500
siesta: k-grid:    0   6   0      0.500
Naive supercell factors:     5    5    5

superc: Internal auxiliary supercell:     5 x     5 x     5  =     125
superc: Number of atoms, orbitals, and projectors:   1000  13000  16000

outcell: Unit cell vectors (Ang):
        5.358420   -0.104147   -0.104146
       -0.104147    5.358420   -0.104146
       -0.104146   -0.104146    5.358420

outcell: Cell vector modules (Ang)   :    5.360444    5.360444    5.360444
outcell: Cell angles (23,13,12) (deg):     92.2044     92.2044     92.2044
outcell: Cell volume (Ang**3)        :    153.6779
New_DM. Step:     8
Re-using DM from previous geometry...
Re-using DM without extrapolation (not allowed)
Density Matrix sparsity pattern changed.

InitMesh: MESH =    36 x    36 x    36 =       46656
InitMesh: Mesh cutoff (required, used) =   100.000   125.039 Ry

siesta: iscf   Eharris(eV)      E_KS(eV)   FreeEng(eV)   dDmax  Ef(eV)
siesta:    1     -861.5944     -858.9251     -858.9267  0.0771 -5.6459
siesta:    2     -862.0119     -861.1770     -861.1776  0.1166 -5.5903
siesta:    3     -861.4553     -860.9048     -860.9048  0.0210 -5.6394
siesta:    4     -861.4537     -861.3552     -861.3553  0.0024 -5.6425
siesta:    5     -861.4536     -861.3875     -861.3876  0.0014 -5.6420
siesta:    6     -861.4535     -861.4272     -861.4273  0.0004 -5.6412

siesta: E_KS(eV) =             -861.4384

siesta: Atomic forces (eV/Ang):
----------------------------------------
   Tot   -0.007489   -0.007487   -0.007536
----------------------------------------
   Max    0.923269
   Res    0.556978    sqrt( Sum f_i^2 / 3N )
----------------------------------------
   Max    0.923269    constrained

Stress-tensor-Voigt (kbar):      -50.27      -50.27      -50.27      -38.36      -38.36      -38.36
(Free)E + p*V (eV/cell)     -856.6169
Target enthalpy (eV/cell)     -861.4386

siesta: Stress tensor (static) (eV/Ang**3):
        -0.031375   -0.023940   -0.023940
        -0.023940   -0.031375   -0.023940
        -0.023940   -0.023940   -0.031375

siesta: Pressure (static):         50.26898146  kBar

siesta: Stress tensor (total) (eV/Ang**3):
        -0.031375   -0.023940   -0.023940
        -0.023940   -0.031375   -0.023940
        -0.023940   -0.023940   -0.031375

siesta: Pressure (total):         50.26898146  kBar

mulliken: Mulliken Atomic and Orbital Populations:

Species: Si                  
Atom  Qatom  Qorb
               3s      3s      3py     3pz     3px     3py     3pz     3px     
               3Pdxy   3Pdyz   3Pdz2   3Pdxz   3Pdx2-y2
   1  3.991   0.697   0.545   0.227   0.227   0.227   0.520   0.520   0.520
              0.120   0.120   0.073   0.120   0.073
   2  3.998   0.608   0.587   0.183   0.183   0.183   0.565   0.565   0.565
              0.133   0.133   0.080   0.133   0.080
   3  4.005   0.569   0.608   0.190   0.124   0.190   0.566   0.609   0.566
              0.134   0.139   0.092   0.139   0.081
   4  3.998   0.597   0.594   0.187   0.166   0.187   0.564   0.575   0.564
              0.132   0.133   0.085   0.133   0.082
   5  4.005   0.569   0.608   0.124   0.190   0.190   0.609   0.566   0.566
              0.139   0.139   0.084   0.134   0.089
   6  3.998   0.597   0.594   0.166   0.187   0.187   0.575   0.564   0.564
              0.133   0.133   0.083   0.132   0.084
   7  4.005   0.569   0.608   0.190   0.190   0.124   0.566   0.566   0.609
              0.139   0.134   0.084   0.139   0.089
   8  3.998   0.597   0.594   0.187   0.187   0.166   0.564   0.564   0.575
              0.133   0.132   0.083   0.133   0.084

mulliken: Qtot =       32.000

* Maximum dynamic memory allocated =   101 MB

siesta:                 ==============================
                            Begin CG move =      8
                        ==============================

outcoor: Atomic coordinates (Ang):                          
    0.12631009    0.12631012    0.12631019   1       1  Si
    1.51079277    1.51079249    1.51079365   1       2  Si
    2.83185698    2.83185704    0.23094829   1       3  Si
    4.17897161    4.17897157    1.47232669   1       4  Si
    2.83185994    0.23094805    2.83185660   1       5  Si
    4.17897212    1.47232609    4.17897217   1       6  Si
    0.23094828    2.83185991    2.83185700   1       7  Si
    1.47232622    4.17897207    4.17897240   1       8  Si
 Kpoints in:          108 . Kpoints trimmed:          108

siesta: k-grid: Number of k-points =   108
siesta: k-grid: Cutoff (effective) =    16.395 Ang
siesta: k-grid: Supercell and displacements
siesta: k-grid:    6   0   0      0.500
siesta: k-grid:    0   0   6      0.500
siesta: k-grid:    0   6   0      0.500
Naive supercell factors:     5    5    5

superc: Internal auxiliary supercell:     5 x     5 x     5  =     125
superc: Number of atoms, orbitals, and projectors:   1000  13000  16000

outcell: Unit cell vectors (Ang):
        5.463197   -0.098762   -0.098760
       -0.098762    5.463197   -0.098760
       -0.098760   -0.098760    5.463197

outcell: Cell vector modules (Ang)   :    5.464982    5.464982    5.464982
outcell: Cell angles (23,13,12) (deg):     92.0519     92.0519     92.0519
outcell: Cell volume (Ang**3)        :    162.8956
New_DM. Step:     9
Re-using DM from previous geometry...
Re-using DM without extrapolation (not allowed)
Density Matrix sparsity pattern changed.

InitMesh: MESH =    36 x    36 x    36 =       46656
InitMesh: Mesh cutoff (required, used) =   100.000   120.250 Ry

siesta: iscf   Eharris(eV)      E_KS(eV)   FreeEng(eV)   dDmax  Ef(eV)
siesta:    1     -861.5312     -859.6172     -859.6173  0.0618 -5.4186
siesta:    2     -862.0642     -861.0141     -861.0141  0.1455 -5.4678
siesta:    3     -861.3572     -860.7633     -860.7633  0.0245 -5.4524
siesta:    4     -861.3569     -861.2398     -861.2398  0.0045 -5.4568
siesta:    5     -861.3566     -861.2849     -861.2849  0.0022 -5.4558
siesta:    6     -861.3565     -861.3231     -861.3231  0.0007 -5.4547

siesta: E_KS(eV) =             -861.3368

siesta: Atomic forces (eV/Ang):
----------------------------------------
   Tot   -0.002650   -0.002645   -0.002643
----------------------------------------
   Max    1.841855
   Res    0.854895    sqrt( Sum f_i^2 / 3N )
----------------------------------------
   Max    1.841855    constrained

Stress-tensor-Voigt (kbar):        2.46        2.46        2.46      -33.35      -33.35      -33.35
(Free)E + p*V (eV/cell)     -861.5873
Target enthalpy (eV/cell)     -861.3368

siesta: Stress tensor (static) (eV/Ang**3):
         0.001538   -0.020816   -0.020815
        -0.020816    0.001538   -0.020815
        -0.020815   -0.020815    0.001538

siesta: Pressure (static):         -2.46345179  kBar

siesta: Stress tensor (total) (eV/Ang**3):
         0.001538   -0.020816   -0.020815
        -0.020816    0.001538   -0.020815
        -0.020815   -0.020815    0.001538

siesta: Pressure (total):         -2.46345179  kBar

mulliken: Mulliken Atomic and Orbital Populations:

Species: Si                  
Atom  Qatom  Qorb
               3s      3s      3py     3pz     3px     3py     3pz     3px     
               3Pdxy   3Pdyz   3Pdz2   3Pdxz   3Pdx2-y2
   1  3.996   0.699   0.545   0.256   0.256   0.256   0.499   0.499   0.499
              0.116   0.116   0.070   0.116   0.070
   2  4.014   0.550   0.618   0.188   0.188   0.188   0.569   0.569   0.569
              0.135   0.135   0.086   0.135   0.086
   3  3.997   0.619   0.584   0.227   0.193   0.227   0.531   0.551   0.531
              0.124   0.128   0.080   0.128   0.076
   4  3.999   0.667   0.560   0.231   0.279   0.231   0.520   0.483   0.520
              0.124   0.118   0.070   0.118   0.076
   5  3.997   0.619   0.584   0.193   0.227   0.227   0.551   0.531   0.531
              0.128   0.128   0.077   0.124   0.079
   6  3.999   0.667   0.560   0.279   0.231   0.231   0.483   0.520   0.520
              0.118   0.118   0.074   0.124   0.072
   7  3.997   0.619   0.584   0.227   0.227   0.193   0.531   0.531   0.551
              0.128   0.124   0.077   0.128   0.079
   8  3.999   0.667   0.560   0.231   0.231   0.279   0.520   0.520   0.483
              0.118   0.124   0.074   0.118   0.072

mulliken: Qtot =       32.000

* Maximum dynamic memory allocated =   101 MB

siesta:                 ==============================
                            Begin CG move =      9
                        ==============================

outcoor: Atomic coordinates (Ang):                          
    0.12533862    0.12533861    0.12533860   1       1  Si
    1.48204395    1.48204374    1.48204446   1       2  Si
    2.82172268    2.82172268    0.17169785   1       3  Si
    4.12063795    4.12063791    1.48406083   1       4  Si
    2.82172491    0.17169771    2.82172236   1       5  Si
    4.12063831    1.48406045    4.12063824   1       6  Si
    0.17169793    2.82172492    2.82172266   1       7  Si
    1.48406055    4.12063828    4.12063844   1       8  Si
 Kpoints in:          108 . Kpoints trimmed:          108

siesta: k-grid: Number of k-points =   108
siesta: k-grid: Cutoff (effective) =    16.219 Ang
siesta: k-grid: Supercell and displacements
siesta: k-grid:    6   0   0      0.500
siesta: k-grid:    0   0   6      0.500
siesta: k-grid:    0   6   0      0.500
Naive supercell factors:     5    5    5

superc: Internal auxiliary supercell:     5 x     5 x     5  =     125
superc: Number of atoms, orbitals, and projectors:   1000  13000  16000

outcell: Unit cell vectors (Ang):
        5.404366   -0.101785   -0.101784
       -0.101785    5.404366   -0.101784
       -0.101784   -0.101784    5.404366

outcell: Cell vector modules (Ang)   :    5.406282    5.406282    5.406282
outcell: Cell angles (23,13,12) (deg):     92.1368     92.1368     92.1369
outcell: Cell volume (Ang**3)        :    157.6761
New_DM. Step:    10
Re-using DM from previous geometry...
Re-using DM without extrapolation (not allowed)
Density Matrix sparsity pattern changed.

InitMesh: MESH =    36 x    36 x    36 =       46656
InitMesh: Mesh cutoff (required, used) =   100.000   122.904 Ry

siesta: iscf   Eharris(eV)      E_KS(eV)   FreeEng(eV)   dDmax  Ef(eV)
siesta:    1     -861.6112     -862.3459     -862.3459  0.0333 -5.5350
siesta:    2     -861.7470     -861.4734     -861.4734  0.0674 -5.5428
siesta:    3     -861.5650     -861.7095     -861.7096  0.0121 -5.5327
siesta:    4     -861.5645     -861.5386     -861.5386  0.0020 -5.5290
siesta:    5     -861.5644     -861.5440     -861.5440  0.0013 -5.5297
siesta:    6     -861.5645     -861.5576     -861.5576  0.0003 -5.5305

siesta: E_KS(eV) =             -861.5621

siesta: Atomic forces (eV/Ang):
----------------------------------------
   Tot    0.002634    0.002630    0.002626
----------------------------------------
   Max    0.954762
   Res    0.570091    sqrt( Sum f_i^2 / 3N )
----------------------------------------
   Max    0.954762    constrained

Stress-tensor-Voigt (kbar):      -23.39      -23.39      -23.39      -37.52      -37.52      -37.52
(Free)E + p*V (eV/cell)     -859.2599
Target enthalpy (eV/cell)     -861.5621

siesta: Stress tensor (static) (eV/Ang**3):
        -0.014601   -0.023415   -0.023415
        -0.023415   -0.014601   -0.023415
        -0.023415   -0.023415   -0.014601

siesta: Pressure (static):         23.39289004  kBar

siesta: Stress tensor (total) (eV/Ang**3):
        -0.014601   -0.023415   -0.023415
        -0.023415   -0.014601   -0.023415
        -0.023415   -0.023415   -0.014601

siesta: Pressure (total):         23.39289004  kBar

mulliken: Mulliken Atomic and Orbital Populations:

Species: Si                  
Atom  Qatom  Qorb
               3s      3s      3py     3pz     3px     3py     3pz     3px     
               3Pdxy   3Pdyz   3Pdz2   3Pdxz   3Pdx2-y2
   1  3.995   0.701   0.542   0.243   0.243   0.243   0.509   0.509   0.509
              0.118   0.118   0.072   0.118   0.072
   2  4.005   0.586   0.598   0.188   0.188   0.188   0.565   0.565   0.565
              0.133   0.133   0.082   0.133   0.082
   3  4.003   0.592   0.596   0.208   0.157   0.208   0.549   0.581   0.549
              0.129   0.134   0.086   0.134   0.079
   4  3.997   0.629   0.578   0.204   0.214   0.204   0.546   0.536   0.546
              0.128   0.126   0.078   0.126   0.079
   5  4.003   0.592   0.596   0.157   0.208   0.208   0.581   0.549   0.549
              0.134   0.134   0.080   0.129   0.084
   6  3.997   0.629   0.578   0.214   0.204   0.204   0.536   0.546   0.546
              0.126   0.126   0.079   0.128   0.078
   7  4.003   0.592   0.596   0.208   0.208   0.157   0.549   0.549   0.581
              0.134   0.129   0.080   0.134   0.084
   8  3.997   0.629   0.578   0.204   0.204   0.214   0.546   0.546   0.536
              0.126   0.128   0.079   0.126   0.078

mulliken: Qtot =       32.000

cgvc: Finished line minimization    2.  Mean atomic displacement =    0.2613

* Maximum dynamic memory allocated =   101 MB

siesta:                 ==============================
                            Begin CG move =     10
                        ==============================

outcoor: Atomic coordinates (Ang):                          
    0.13068527    0.13068510    0.13068287   1       1  Si
    1.48851896    1.48851871    1.48851941   1       2  Si
    2.90944382    2.90944344    0.17067220   1       3  Si
    4.40028683    4.40028664    1.59793569   1       4  Si
    2.90944349    0.17067306    2.90944366   1       5  Si
    4.40028733    1.59793787    4.40028699   1       6  Si
    0.17067335    2.90944355    2.90944353   1       7  Si
    1.59793825    4.40028732    4.40028710   1       8  Si
 Kpoints in:          108 . Kpoints trimmed:          108

siesta: k-grid: Number of k-points =   108
siesta: k-grid: Cutoff (effective) =    16.486 Ang
siesta: k-grid: Supercell and displacements
siesta: k-grid:    6   0   0      0.500
siesta: k-grid:    0   6   0      0.500
siesta: k-grid:    0   0   6      0.500
Naive supercell factors:     5    5    5

superc: Internal auxiliary supercell:     5 x     5 x     5  =     125
superc: Number of atoms, orbitals, and projectors:   1000  13000  16000

outcell: Unit cell vectors (Ang):
        5.495177   -0.016944   -0.016943
       -0.016944    5.495177   -0.016943
       -0.016943   -0.016943    5.495177

outcell: Cell vector modules (Ang)   :    5.495229    5.495229    5.495229
outcell: Cell angles (23,13,12) (deg):     90.3528     90.3528     90.3528
outcell: Cell volume (Ang**3)        :    165.9329
New_DM. Step:    11
Re-using DM from previous geometry...
Re-using DM without extrapolation (not allowed)
Density Matrix sparsity pattern changed.

InitMesh: MESH =    36 x    36 x    36 =       46656
InitMesh: Mesh cutoff (required, used) =   100.000   118.623 Ry

siesta: iscf   Eharris(eV)      E_KS(eV)   FreeEng(eV)   dDmax  Ef(eV)
siesta:    1     -861.8464     -859.7813     -859.7813  0.0651 -5.0826
siesta:    2     -863.9517     -860.0514     -860.0526  0.3052 -5.3777
siesta:    3     -861.2605     -860.3129     -860.3137  0.0526 -5.1219
siesta:    4     -861.2603     -860.8584     -860.8601  0.0148 -5.1346
siesta:    5     -861.2590     -861.0462     -861.0478  0.0044 -5.1315
siesta:    6     -861.2589     -861.1521     -861.1538  0.0020 -5.1301
siesta:    7     -861.2589     -861.2276     -861.2293  0.0007 -5.1296

siesta: E_KS(eV) =             -861.2528

siesta: Atomic forces (eV/Ang):
----------------------------------------
   Tot   -0.005258   -0.005256   -0.005251
----------------------------------------
   Max    1.531280
   Res    0.920039    sqrt( Sum f_i^2 / 3N )
----------------------------------------
   Max    1.531280    constrained

Stress-tensor-Voigt (kbar):       19.79       19.79       19.79       18.14       18.14       18.14
(Free)E + p*V (eV/cell)     -863.3038
Target enthalpy (eV/cell)     -861.2545

siesta: Stress tensor (static) (eV/Ang**3):
         0.012350    0.011322    0.011323
         0.011322    0.012350    0.011323
         0.011323    0.011323    0.012350

siesta: Pressure (static):        -19.78722851  kBar

siesta: Stress tensor (total) (eV/Ang**3):
         0.012350    0.011322    0.011323
         0.011322    0.012350    0.011323
         0.011323    0.011323    0.012350

siesta: Pressure (total):        -19.78722851  kBar

mulliken: Mulliken Atomic and Orbital Populations:

Species: Si                  
Atom  Qatom  Qorb
               3s      3s      3py     3pz     3px     3py     3pz     3px     
               3Pdxy   3Pdyz   3Pdz2   3Pdxz   3Pdx2-y2
   1  4.023   0.535   0.626   0.191   0.191   0.191   0.567   0.567   0.567
              0.136   0.136   0.091   0.136   0.091
   2  3.977   0.661   0.564   0.230   0.230   0.230   0.518   0.518   0.518
              0.121   0.121   0.073   0.121   0.073
   3  3.996   0.685   0.552   0.240   0.311   0.240   0.509   0.461   0.509
              0.122   0.114   0.064   0.114   0.076
   4  4.004   0.643   0.571   0.247   0.240   0.247   0.513   0.517   0.513
              0.120   0.121   0.077   0.121   0.074
   5  3.996   0.685   0.552   0.311   0.240   0.240   0.461   0.509   0.509
              0.114   0.114   0.073   0.122   0.067
   6  4.004   0.643   0.571   0.240   0.247   0.247   0.517   0.513   0.513
              0.121   0.121   0.075   0.120   0.076
   7  3.996   0.685   0.552   0.240   0.240   0.311   0.509   0.509   0.461
              0.114   0.122   0.073   0.114   0.067
   8  4.004   0.643   0.571   0.247   0.247   0.240   0.513   0.513   0.517
              0.121   0.120   0.075   0.121   0.076

mulliken: Qtot =       32.000

* Maximum dynamic memory allocated =   101 MB

siesta:                 ==============================
                            Begin CG move =     11
                        ==============================

outcoor: Atomic coordinates (Ang):                          
    0.12765815    0.12765807    0.12765710   1       1  Si
    1.48563271    1.48563249    1.48563320   1       2  Si
    2.86004788    2.86004772    0.17172601   1       3  Si
    4.24064697    4.24064687    1.53253379   1       4  Si
    2.86004902    0.17172630    2.86004764   1       5  Si
    4.24064738    1.53253450    4.24064720   1       6  Si
    0.17172655    2.86004905    2.86004775   1       7  Si
    1.53253472    4.24064737    4.24064736   1       8  Si
 Kpoints in:          108 . Kpoints trimmed:          108

siesta: k-grid: Number of k-points =   108
siesta: k-grid: Cutoff (effective) =    16.333 Ang
siesta: k-grid: Supercell and displacements
siesta: k-grid:    6   0   0      0.500
siesta: k-grid:    0   6   0      0.500
siesta: k-grid:    0   0   6      0.500
Naive supercell factors:     5    5    5

superc: Internal auxiliary supercell:     5 x     5 x     5  =     125
superc: Number of atoms, orbitals, and projectors:   1000  13000  16000

outcell: Unit cell vectors (Ang):
        5.443577   -0.065152   -0.065150
       -0.065152    5.443577   -0.065150
       -0.065150   -0.065150    5.443577

outcell: Cell vector modules (Ang)   :    5.444357    5.444357    5.444357
outcell: Cell angles (23,13,12) (deg):     91.3630     91.3630     91.3630
outcell: Cell volume (Ang**3)        :    161.2371
New_DM. Step:    12
Re-using DM from previous geometry...
Re-using DM without extrapolation (not allowed)
Density Matrix sparsity pattern changed.

InitMesh: MESH =    36 x    36 x    36 =       46656
InitMesh: Mesh cutoff (required, used) =   100.000   120.981 Ry

siesta: iscf   Eharris(eV)      E_KS(eV)   FreeEng(eV)   dDmax  Ef(eV)
siesta:    1     -861.9892     -862.2925     -862.2942  0.0369 -5.3028
siesta:    2     -862.5127     -861.4942     -861.4943  0.1255 -5.3283
siesta:    3     -861.8281     -861.8776     -861.8776  0.0255 -5.2983
siesta:    4     -861.8276     -861.7538     -861.7538  0.0034 -5.2943
siesta:    5     -861.8275     -861.7716     -861.7716  0.0022 -5.2941
siesta:    6     -861.8275     -861.8098     -861.8098  0.0005 -5.2942

siesta: E_KS(eV) =             -861.8213

siesta: Atomic forces (eV/Ang):
----------------------------------------
   Tot   -0.002125   -0.002117   -0.002134
----------------------------------------
   Max    0.410290
   Res    0.315332    sqrt( Sum f_i^2 / 3N )
----------------------------------------
   Max    0.410290    constrained

Stress-tensor-Voigt (kbar):        3.23        3.23        3.23       -7.95       -7.95       -7.95
(Free)E + p*V (eV/cell)     -862.1460
Target enthalpy (eV/cell)     -861.8213

siesta: Stress tensor (static) (eV/Ang**3):
         0.002014   -0.004964   -0.004964
        -0.004964    0.002014   -0.004964
        -0.004964   -0.004964    0.002014

siesta: Pressure (static):         -3.22649312  kBar

siesta: Stress tensor (total) (eV/Ang**3):
         0.002014   -0.004964   -0.004964
        -0.004964    0.002014   -0.004964
        -0.004964   -0.004964    0.002014

siesta: Pressure (total):         -3.22649312  kBar

mulliken: Mulliken Atomic and Orbital Populations:

Species: Si                  
Atom  Qatom  Qorb
               3s      3s      3py     3pz     3px     3py     3pz     3px     
               3Pdxy   3Pdyz   3Pdz2   3Pdxz   3Pdx2-y2
   1  4.001   0.630   0.577   0.222   0.222   0.222   0.532   0.532   0.532
              0.125   0.125   0.078   0.125   0.078
   2  3.999   0.624   0.579   0.211   0.211   0.211   0.542   0.542   0.542
              0.128   0.128   0.077   0.128   0.077
   3  4.000   0.640   0.570   0.219   0.229   0.219   0.533   0.528   0.533
              0.125   0.125   0.075   0.125   0.076
   4  4.000   0.643   0.569   0.227   0.226   0.227   0.529   0.527   0.529
              0.125   0.123   0.076   0.123   0.076
   5  4.000   0.640   0.570   0.229   0.219   0.219   0.528   0.533   0.533
              0.125   0.125   0.076   0.125   0.076
   6  4.000   0.643   0.569   0.226   0.227   0.227   0.527   0.529   0.529
              0.123   0.123   0.076   0.125   0.076
   7  4.000   0.640   0.570   0.219   0.219   0.229   0.533   0.533   0.528
              0.125   0.125   0.076   0.125   0.076
   8  4.000   0.643   0.569   0.227   0.227   0.226   0.529   0.529   0.527
              0.123   0.125   0.076   0.123   0.076

mulliken: Qtot =       32.000

cgvc: Finished line minimization    3.  Mean atomic displacement =    0.1128

* Maximum dynamic memory allocated =   101 MB

siesta:                 ==============================
                            Begin CG move =     12
                        ==============================

outcoor: Atomic coordinates (Ang):                          
    0.15703077    0.15703097    0.15702905   1       1  Si
    1.48088943    1.48088952    1.48088900   1       2  Si
    2.93851293    2.93851269    0.19724196   1       3  Si
    4.30242812    4.30242818    1.55194644   1       4  Si
    2.93851294    0.19724426    2.93851322   1       5  Si
    4.30242895    1.55194853    4.30242801   1       6  Si
    0.19724457    2.93851302    2.93851306   1       7  Si
    1.55194896    4.30242869    4.30242789   1       8  Si
 Kpoints in:          108 . Kpoints trimmed:          108

siesta: k-grid: Number of k-points =   108
siesta: k-grid: Cutoff (effective) =    16.399 Ang
siesta: k-grid: Supercell and displacements
siesta: k-grid:    6   0   0      0.500
siesta: k-grid:    0   6   0      0.500
siesta: k-grid:    0   0   6      0.500
Naive supercell factors:     5    5    5

superc: Internal auxiliary supercell:     5 x     5 x     5  =     125
superc: Number of atoms, orbitals, and projectors:   1000  13000  16000

outcell: Unit cell vectors (Ang):
        5.466392   -0.023465   -0.023465
       -0.023465    5.466392   -0.023465
       -0.023465   -0.023465    5.466393

outcell: Cell vector modules (Ang)   :    5.466493    5.466493    5.466493
outcell: Cell angles (23,13,12) (deg):     90.4908     90.4908     90.4908
outcell: Cell volume (Ang**3)        :    163.3346
New_DM. Step:    13
Re-using DM from previous geometry...
Re-using DM without extrapolation (not allowed)
Density Matrix sparsity pattern changed.

InitMesh: MESH =    36 x    36 x    36 =       46656
InitMesh: Mesh cutoff (required, used) =   100.000   119.882 Ry

siesta: iscf   Eharris(eV)      E_KS(eV)   FreeEng(eV)   dDmax  Ef(eV)
siesta:    1     -861.9004     -861.3928     -861.3928  0.0202 -5.3398
siesta:    2     -862.1118     -861.6896     -861.6896  0.0704 -5.3820
siesta:    3     -861.8291     -861.6464     -861.6464  0.0122 -5.3553
siesta:    4     -861.8289     -861.7916     -861.7916  0.0010 -5.3541

siesta: E_KS(eV) =             -861.8046

siesta: Atomic forces (eV/Ang):
----------------------------------------
   Tot    0.006067    0.006074    0.006075
----------------------------------------
   Max    0.872659
   Res    0.408641    sqrt( Sum f_i^2 / 3N )
----------------------------------------
   Max    0.872659    constrained

Stress-tensor-Voigt (kbar):       10.45       10.45       10.45       -9.64       -9.64       -9.64
(Free)E + p*V (eV/cell)     -862.8700
Target enthalpy (eV/cell)     -861.8046

siesta: Stress tensor (static) (eV/Ang**3):
         0.006523   -0.006019   -0.006019
        -0.006019    0.006523   -0.006019
        -0.006019   -0.006019    0.006523

siesta: Pressure (static):        -10.45125816  kBar

siesta: Stress tensor (total) (eV/Ang**3):
         0.006523   -0.006019   -0.006019
        -0.006019    0.006523   -0.006019
        -0.006019   -0.006019    0.006523

siesta: Pressure (total):        -10.45125816  kBar

mulliken: Mulliken Atomic and Orbital Populations:

Species: Si                  
Atom  Qatom  Qorb
               3s      3s      3py     3pz     3px     3py     3pz     3px     
               3Pdxy   3Pdyz   3Pdz2   3Pdxz   3Pdx2-y2
   1  4.009   0.587   0.598   0.203   0.203   0.203   0.554   0.554   0.554
              0.130   0.130   0.082   0.130   0.082
   2  3.999   0.679   0.552   0.247   0.247   0.247   0.509   0.509   0.509
              0.119   0.119   0.071   0.119   0.071
   3  3.998   0.666   0.557   0.231   0.264   0.231   0.522   0.500   0.522
              0.123   0.119   0.070   0.119   0.075
   4  4.000   0.636   0.571   0.232   0.214   0.232   0.527   0.538   0.527
              0.123   0.125   0.077   0.125   0.074
   5  3.998   0.666   0.557   0.264   0.231   0.231   0.500   0.522   0.522
              0.119   0.119   0.073   0.123   0.071
   6  4.000   0.636   0.571   0.214   0.232   0.232   0.538   0.527   0.527
              0.125   0.125   0.075   0.123   0.076
   7  3.998   0.666   0.557   0.231   0.231   0.264   0.522   0.522   0.500
              0.119   0.123   0.073   0.119   0.071
   8  4.000   0.636   0.571   0.232   0.232   0.214   0.527   0.527   0.538
              0.125   0.123   0.075   0.125   0.076

mulliken: Qtot =       32.000

* Maximum dynamic memory allocated =   101 MB

siesta:                 ==============================
                            Begin CG move =     13
                        ==============================

outcoor: Atomic coordinates (Ang):                          
    0.14131613    0.14131618    0.14131476   1       1  Si
    1.48357404    1.48357396    1.48357409   1       2  Si
    2.89679551    2.89679531    0.18356366   1       3  Si
    4.26975762    4.26975759    1.54171049   1       4  Si
    2.89679611    0.18356490    2.89679551   1       5  Si
    4.26975822    1.54171184    4.26975768   1       6  Si
    0.18356517    2.89679617    2.89679550   1       7  Si
    1.54171216    4.26975810    4.26975771   1       8  Si
 Kpoints in:          108 . Kpoints trimmed:          108

siesta: k-grid: Number of k-points =   108
siesta: k-grid: Cutoff (effective) =    16.364 Ang
siesta: k-grid: Supercell and displacements
siesta: k-grid:    6   0   0      0.500
siesta: k-grid:    0   6   0      0.500
siesta: k-grid:    0   0   6      0.500
Naive supercell factors:     5    5    5

superc: Internal auxiliary supercell:     5 x     5 x     5  =     125
superc: Number of atoms, orbitals, and projectors:   1000  13000  16000

outcell: Unit cell vectors (Ang):
        5.454287   -0.045582   -0.045581
       -0.045582    5.454287   -0.045581
       -0.045581   -0.045581    5.454288

outcell: Cell vector modules (Ang)   :    5.454668    5.454668    5.454669
outcell: Cell angles (23,13,12) (deg):     90.9535     90.9535     90.9536
outcell: Cell volume (Ang**3)        :    162.2268
New_DM. Step:    14
Re-using DM from previous geometry...
Re-using DM without extrapolation (not allowed)
Density Matrix sparsity pattern changed.

InitMesh: MESH =    36 x    36 x    36 =       46656
InitMesh: Mesh cutoff (required, used) =   100.000   120.452 Ry

siesta: iscf   Eharris(eV)      E_KS(eV)   FreeEng(eV)   dDmax  Ef(eV)
siesta:    1     -861.9043     -862.0134     -862.0134  0.0096 -5.3247
siesta:    2     -861.9672     -861.8418     -861.8418  0.0353 -5.3134
siesta:    3     -861.8831     -861.9116     -861.9116  0.0060 -5.3156
siesta:    4     -861.8831     -861.8721     -861.8721  0.0005 -5.3136

siesta: E_KS(eV) =             -861.8751

siesta: Atomic forces (eV/Ang):
----------------------------------------
   Tot    0.002398    0.002399    0.002397
----------------------------------------
   Max    0.365919
   Res    0.221665    sqrt( Sum f_i^2 / 3N )
----------------------------------------
   Max    0.365919    constrained

Stress-tensor-Voigt (kbar):        7.40        7.40        7.40       -8.44       -8.44       -8.44
(Free)E + p*V (eV/cell)     -862.6244
Target enthalpy (eV/cell)     -861.8751

siesta: Stress tensor (static) (eV/Ang**3):
         0.004619   -0.005270   -0.005270
        -0.005270    0.004619   -0.005270
        -0.005270   -0.005270    0.004619

siesta: Pressure (static):         -7.40046860  kBar

siesta: Stress tensor (total) (eV/Ang**3):
         0.004619   -0.005270   -0.005270
        -0.005270    0.004619   -0.005270
        -0.005270   -0.005270    0.004619

siesta: Pressure (total):         -7.40046860  kBar

mulliken: Mulliken Atomic and Orbital Populations:

Species: Si                  
Atom  Qatom  Qorb
               3s      3s      3py     3pz     3px     3py     3pz     3px     
               3Pdxy   3Pdyz   3Pdz2   3Pdxz   3Pdx2-y2
   1  4.006   0.609   0.587   0.214   0.214   0.214   0.542   0.542   0.542
              0.127   0.127   0.079   0.127   0.079
   2  3.997   0.650   0.566   0.226   0.226   0.226   0.528   0.528   0.528
              0.124   0.124   0.074   0.124   0.074
   3  3.998   0.652   0.564   0.223   0.246   0.223   0.529   0.516   0.529
              0.124   0.122   0.072   0.122   0.076
   4  4.000   0.639   0.571   0.228   0.219   0.228   0.529   0.534   0.529
              0.124   0.124   0.077   0.124   0.075
   5  3.998   0.652   0.564   0.246   0.223   0.223   0.516   0.529   0.529
              0.122   0.122   0.075   0.124   0.073
   6  4.000   0.639   0.571   0.219   0.228   0.228   0.534   0.529   0.529
              0.124   0.124   0.075   0.124   0.076
   7  3.998   0.652   0.564   0.223   0.223   0.246   0.529   0.529   0.516
              0.122   0.124   0.075   0.122   0.073
   8  4.000   0.639   0.571   0.228   0.228   0.219   0.529   0.529   0.534
              0.124   0.124   0.075   0.124   0.076

mulliken: Qtot =       32.000

cgvc: Finished line minimization    4.  Mean atomic displacement =    0.0530

* Maximum dynamic memory allocated =   101 MB

siesta:                 ==============================
                            Begin CG move =     14
                        ==============================

outcoor: Atomic coordinates (Ang):                          
    0.15311778    0.15311777    0.15311626   1       1  Si
    1.51320873    1.51320892    1.51320859   1       2  Si
    2.90952306    2.90952259    0.20914214   1       3  Si
    4.25645325    4.25645303    1.55657599   1       4  Si
    2.90952456    0.20914349    2.90952267   1       5  Si
[...]
         73.35  86.45  89.12  90.80
  93  1 -16.57 -15.88 -14.71 -14.36 -12.50 -12.11 -10.67  -9.95  -9.69  -9.62
         -8.57  -8.33  -8.11  -7.85  -7.60  -6.65  -3.52  -3.50  -3.03  -2.39
         -2.16  -1.89  -1.87  -1.08  -1.04  -0.88  -0.65  -0.54   0.44   0.45
          1.12   1.89   1.91   1.94   2.55   3.46   3.93   3.94   4.58   5.56
          5.67   5.68   7.48   7.82   8.19   8.47   8.88   9.25   9.46  10.12
         10.40  10.97  11.04  11.29  11.43  11.75  12.02  12.39  12.97  13.31
         14.07  14.27  14.51  14.61  14.67  15.71  16.19  16.39  16.42  17.14
         17.69  17.83  18.73  18.92  19.45  20.79  21.88  22.26  23.24  23.39
         23.80  23.99  24.75  25.15  26.41  26.59  32.93  37.65  38.97  40.97
         44.12  54.06  54.25  56.76  58.39  64.05  65.84  67.70  68.08  69.12
         73.50  86.50  89.20  90.75
  94  1 -16.35 -15.71 -14.78 -14.78 -12.43 -12.43 -11.38 -10.58  -9.18  -9.18
         -8.14  -7.83  -7.83  -7.51  -6.99  -6.96  -3.64  -3.40  -3.27  -3.26
         -2.31  -1.69  -1.69  -1.50  -1.40  -0.69  -0.55   0.31   0.31   0.45
          0.67   0.68   2.74   2.75   3.21   3.24   4.77   4.91   5.06   5.32
          5.40   5.40   6.44   6.44   7.24   8.12   8.76   9.14   9.15   9.15
          9.31   9.31  11.07  11.39  11.39  11.77  13.05  13.30  13.49  13.49
         13.60  14.73  15.01  15.01  16.20  16.20  16.63  16.74  17.22  17.48
         17.49  17.87  17.88  19.26  19.26  19.29  20.88  22.24  22.39  23.92
         24.56  24.56  25.40  27.44  28.06  28.06  32.67  33.48  36.44  36.44
         41.73  49.38  56.09  56.10  57.17  62.13  64.15  68.96  68.98  69.66
         81.81  86.83  86.83  94.65
  95  1 -15.95 -15.39 -15.39 -15.02 -12.47 -12.06 -12.06 -11.43  -8.70  -8.27
         -8.27  -7.53  -7.28  -7.25  -7.24  -6.67  -3.51  -3.47  -3.09  -3.09
         -2.40  -2.39  -2.02  -1.98  -1.56  -1.18  -1.05  -1.05   1.19   1.20
          2.02   2.20   2.38   3.06   3.45   3.89   3.89   4.26   4.26   4.49
          5.11   6.94   6.94   7.14   7.14   7.65   7.98   8.62   8.80   8.81
          8.94   9.21   9.27  10.06  10.48  10.49  13.83  14.08  14.08  15.07
         15.08  15.13  15.56  15.81  15.87  15.98  16.61  16.61  17.75  18.40
         18.42  18.43  19.07  19.07  19.39  19.89  20.58  20.58  21.26  21.89
         26.97  27.20  27.20  28.95  29.05  32.53  32.53  34.62  39.90  41.59
         41.61  48.11  55.61  55.65  58.41  59.40  65.02  76.75  76.76  80.92
         81.75  81.77  90.26  93.68
  96  1 -15.95 -15.39 -15.39 -15.02 -12.47 -12.07 -12.06 -11.42  -8.70  -8.27
         -8.26  -7.54  -7.29  -7.24  -7.23  -6.68  -3.53  -3.48  -3.09  -3.07
         -2.39  -2.38  -2.03  -1.99  -1.55  -1.18  -1.05  -1.03   1.21   1.23
          2.01   2.20   2.42   3.04   3.42   3.87   3.88   4.23   4.25   4.49
          5.13   6.92   6.92   7.09   7.11   7.64   8.00   8.60   8.80   8.80
          8.93   9.23   9.32  10.08  10.50  10.54  13.84  14.07  14.08  15.06
         15.08  15.14  15.59  15.84  15.90  15.98  16.55  16.56  17.74  18.39
         18.45  18.46  19.03  19.06  19.40  19.86  20.56  20.56  21.25  21.94
         26.93  27.17  27.24  28.92  29.06  32.50  32.53  34.60  39.84  41.57
         41.61  48.06  55.67  55.76  58.23  59.35  64.73  76.56  76.61  81.04
         81.73  81.81  90.34  92.81
  97  1 -15.95 -15.39 -15.39 -15.03 -12.47 -12.06 -12.06 -11.42  -8.69  -8.27
         -8.26  -7.55  -7.27  -7.25  -7.25  -6.67  -3.53  -3.46  -3.10  -3.10
         -2.40  -2.40  -2.03  -1.99  -1.53  -1.17  -1.04  -1.04   1.23   1.23
          2.03   2.22   2.40   3.04   3.42   3.87   3.87   4.24   4.24   4.47
          5.09   6.91   6.92   7.14   7.14   7.65   7.97   8.59   8.78   8.79
          8.93   9.25   9.29  10.10  10.54  10.54  13.86  14.10  14.10  15.09
         15.10  15.13  15.59  15.81  15.86  15.95  16.55  16.56  17.72  18.39
         18.43  18.44  19.07  19.07  19.39  19.88  20.55  20.56  21.25  21.92
         26.98  27.18  27.18  28.88  29.09  32.48  32.49  34.59  39.90  41.53
         41.53  48.19  55.38  55.40  58.33  59.44  64.86  76.58  76.60  80.87
         81.71  81.73  90.35  93.18
  98  1 -16.13 -15.50 -15.49 -14.96 -12.01 -11.37 -11.37 -10.57  -9.72  -9.22
         -9.22  -8.61  -7.40  -7.35  -7.35  -6.60  -3.62  -2.90  -2.69  -2.69
         -2.03  -2.03  -1.62  -1.43  -0.31  -0.31  -0.28  -0.12   0.23   0.23
          0.53   0.99   1.54   1.93   2.31   2.56   2.56   4.10   4.10   5.14
          5.72   7.69   7.69   7.96   8.53   8.53   9.36   9.55   9.77   9.86
          9.87  10.58  11.08  11.66  11.67  12.06  12.68  12.87  12.96  12.96
         13.55  13.76  13.76  14.46  14.99  15.22  15.23  15.46  17.56  18.40
         18.40  19.22  20.03  20.03  20.46  20.49  21.72  21.72  21.94  22.46
         25.41  26.03  26.17  26.17  27.93  35.99  36.00  41.16  44.60  44.61
         51.18  51.55  54.20  54.22  59.71  61.53  63.25  69.83  69.87  81.43
         81.43  82.42  84.99  87.94
  99  1 -16.13 -15.50 -15.49 -14.96 -12.00 -11.37 -11.37 -10.58  -9.73  -9.22
         -9.22  -8.60  -7.40  -7.35  -7.34  -6.60  -3.62  -2.89  -2.69  -2.69
         -2.01  -2.01  -1.61  -1.42  -0.34  -0.34  -0.29  -0.14   0.21   0.21
          0.52   0.98   1.57   1.94   2.30   2.58   2.58   4.10   4.10   5.16
          5.73   7.69   7.69   7.97   8.54   8.54   9.35   9.53   9.75   9.90
          9.90  10.59  11.12  11.64  11.64  12.04  12.68  12.85  12.91  12.91
         13.51  13.74  13.74  14.47  15.00  15.28  15.28  15.48  17.56  18.39
         18.40  19.24  20.03  20.03  20.47  20.49  21.74  21.74  21.94  22.45
         25.40  26.01  26.18  26.18  27.96  36.01  36.01  41.17  44.71  44.72
         51.23  51.60  54.19  54.20  59.82  61.34  63.33  70.13  70.15  81.44
         81.46  82.45  84.94  87.87
 100  1 -15.95 -15.39 -15.39 -15.02 -12.47 -12.06 -12.06 -11.43  -8.70  -8.27
         -8.27  -7.53  -7.28  -7.25  -7.24  -6.67  -3.51  -3.47  -3.09  -3.09
         -2.40  -2.39  -2.02  -1.98  -1.56  -1.18  -1.05  -1.05   1.19   1.20
          2.02   2.20   2.38   3.06   3.45   3.89   3.89   4.26   4.26   4.49
          5.11   6.94   6.94   7.14   7.14   7.65   7.98   8.62   8.80   8.81
          8.94   9.21   9.27  10.06  10.48  10.49  13.83  14.08  14.08  15.07
         15.08  15.13  15.56  15.81  15.87  15.98  16.61  16.61  17.75  18.40
         18.42  18.43  19.07  19.07  19.39  19.89  20.58  20.58  21.26  21.89
         26.97  27.20  27.20  28.95  29.05  32.53  32.53  34.62  39.90  41.59
         41.61  48.11  55.61  55.65  58.41  59.40  65.02  76.75  76.76  80.92
         81.75  81.77  90.26  93.68
 101  1 -15.63 -15.26 -15.26 -15.25 -12.57 -12.57 -12.57 -12.17  -7.49  -7.49
         -7.49  -7.06  -7.06  -7.06  -6.83  -6.83  -4.14  -3.69  -3.68  -3.68
         -2.31  -2.31  -2.30  -2.16  -2.16  -1.87  -1.87  -1.87   2.68   2.69
          2.69   3.12   3.99   3.99   4.04   4.04   4.05   5.01   5.34   5.34
          5.34   6.13   6.13   6.13   6.26   6.26   6.27   7.66   7.66   7.87
          7.88   7.88   8.67   8.67   8.67   8.74  15.97  15.98  15.98  16.02
         16.50  16.50  16.73  16.73  16.74  17.42  17.42  17.43  18.19  18.20
         18.20  19.00  19.00  19.01  19.46  19.46  19.47  20.07  20.07  21.90
         28.43  28.43  28.43  29.91  29.91  30.02  30.02  30.02  51.80  51.80
         51.81  56.87  61.24  61.32  61.32  71.76  71.76  71.79  73.74  73.74
         87.70  87.72  87.72 102.91
 102  1 -15.62 -15.26 -15.26 -15.25 -12.58 -12.57 -12.57 -12.16  -7.48  -7.48
         -7.47  -7.07  -7.07  -7.05  -6.84  -6.83  -4.16  -3.69  -3.69  -3.66
         -2.31  -2.30  -2.29  -2.17  -2.17  -1.87  -1.87  -1.86   2.71   2.72
          2.72   3.10   3.98   4.01   4.03   4.04   4.04   5.02   5.31   5.32
          5.32   6.10   6.10   6.10   6.23   6.24   6.25   7.66   7.70   7.88
          7.89   7.90   8.68   8.70   8.70   8.75  15.95  15.98  15.99  16.05
         16.49  16.53  16.74  16.76  16.76  17.39  17.39  17.39  18.14  18.19
         18.19  19.02  19.02  19.03  19.44  19.45  19.46  20.05  20.07  21.98
         28.38  28.39  28.44  29.85  29.89  30.03  30.04  30.05  51.72  51.73
         51.97  56.87  61.04  61.04  61.49  71.84  71.89  71.94  72.82  73.26
         87.58  87.60  87.64 102.66
 103  1 -15.95 -15.39 -15.39 -15.02 -12.47 -12.07 -12.06 -11.42  -8.70  -8.27
         -8.26  -7.54  -7.29  -7.24  -7.23  -6.68  -3.53  -3.48  -3.09  -3.07
         -2.39  -2.38  -2.03  -1.99  -1.55  -1.18  -1.05  -1.03   1.21   1.23
          2.01   2.20   2.42   3.04   3.42   3.87   3.88   4.23   4.25   4.49
          5.13   6.92   6.92   7.09   7.11   7.64   8.00   8.60   8.80   8.80
          8.93   9.23   9.32  10.08  10.50  10.54  13.84  14.07  14.08  15.06
         15.08  15.14  15.59  15.84  15.90  15.98  16.55  16.56  17.74  18.39
         18.45  18.46  19.03  19.06  19.40  19.86  20.56  20.56  21.25  21.94
         26.93  27.17  27.24  28.92  29.06  32.50  32.53  34.60  39.84  41.57
         41.61  48.06  55.67  55.76  58.23  59.35  64.73  76.56  76.61  81.04
         81.73  81.81  90.34  92.81
 104  1 -16.12 -15.50 -15.50 -14.96 -12.00 -11.38 -11.37 -10.57  -9.72  -9.22
         -9.21  -8.60  -7.41  -7.34  -7.33  -6.61  -3.64  -2.91  -2.67  -2.67
         -2.02  -2.01  -1.62  -1.43  -0.32  -0.31  -0.28  -0.14   0.23   0.24
          0.52   0.97   1.55   1.92   2.34   2.57   2.59   4.06   4.07   5.18
          5.76   7.64   7.66   7.96   8.54   8.55   9.36   9.55   9.77   9.87
          9.90  10.59  11.10  11.64  11.65  12.06  12.69  12.86  12.93  12.94
         13.54  13.72  13.73  14.52  15.00  15.22  15.24  15.49  17.60  18.41
         18.42  19.20  20.01  20.03  20.44  20.51  21.73  21.73  21.92  22.46
         25.38  26.00  26.18  26.21  27.93  35.99  36.03  41.10  44.68  44.71
         50.97  51.67  54.34  54.48  59.76  61.54  63.07  69.88  69.89  81.34
         81.38  82.55  85.00  87.98
 105  1 -16.12 -15.50 -15.50 -14.96 -12.00 -11.38 -11.37 -10.57  -9.72  -9.22
         -9.21  -8.60  -7.41  -7.34  -7.33  -6.61  -3.64  -2.91  -2.67  -2.67
         -2.02  -2.01  -1.62  -1.43  -0.32  -0.31  -0.28  -0.14   0.23   0.24
          0.52   0.97   1.55   1.92   2.34   2.57   2.59   4.06   4.07   5.18
          5.76   7.64   7.66   7.96   8.54   8.55   9.36   9.55   9.77   9.87
          9.90  10.59  11.10  11.64  11.65  12.06  12.69  12.86  12.93  12.94
         13.54  13.72  13.73  14.52  15.00  15.22  15.24  15.49  17.60  18.41
         18.42  19.20  20.01  20.03  20.44  20.51  21.73  21.73  21.92  22.46
         25.38  26.00  26.18  26.21  27.93  35.99  36.03  41.10  44.68  44.71
         50.97  51.67  54.34  54.48  59.76  61.54  63.07  69.88  69.89  81.34
         81.38  82.55  85.00  87.98
 106  1 -15.95 -15.39 -15.39 -15.02 -12.47 -12.07 -12.06 -11.42  -8.70  -8.27
         -8.26  -7.54  -7.29  -7.24  -7.23  -6.68  -3.53  -3.48  -3.09  -3.07
         -2.39  -2.38  -2.03  -1.99  -1.55  -1.18  -1.05  -1.03   1.21   1.23
          2.01   2.20   2.42   3.04   3.42   3.87   3.88   4.23   4.25   4.49
          5.13   6.92   6.92   7.09   7.11   7.64   8.00   8.60   8.80   8.80
          8.93   9.23   9.32  10.08  10.50  10.54  13.84  14.07  14.08  15.06
         15.08  15.14  15.59  15.84  15.90  15.98  16.55  16.56  17.74  18.39
         18.45  18.46  19.03  19.06  19.40  19.86  20.56  20.56  21.25  21.94
         26.93  27.17  27.24  28.92  29.06  32.50  32.53  34.60  39.84  41.57
         41.61  48.06  55.67  55.76  58.23  59.35  64.73  76.56  76.61  81.04
         81.73  81.81  90.34  92.81
 107  1 -15.62 -15.26 -15.26 -15.25 -12.58 -12.57 -12.57 -12.16  -7.48  -7.48
         -7.47  -7.07  -7.07  -7.05  -6.84  -6.83  -4.16  -3.69  -3.69  -3.66
         -2.31  -2.30  -2.29  -2.17  -2.17  -1.87  -1.87  -1.86   2.71   2.72
          2.72   3.10   3.98   4.01   4.03   4.04   4.04   5.02   5.31   5.32
          5.32   6.10   6.10   6.10   6.23   6.24   6.25   7.66   7.70   7.88
          7.89   7.90   8.68   8.70   8.70   8.75  15.95  15.98  15.99  16.05
         16.49  16.53  16.74  16.76  16.76  17.39  17.39  17.39  18.14  18.19
         18.19  19.02  19.02  19.03  19.44  19.45  19.46  20.05  20.07  21.98
         28.38  28.39  28.44  29.85  29.89  30.03  30.04  30.05  51.72  51.73
         51.97  56.87  61.04  61.04  61.49  71.84  71.89  71.94  72.82  73.26
         87.58  87.60  87.64 102.66
 108  1 -15.62 -15.26 -15.26 -15.25 -12.58 -12.57 -12.57 -12.16  -7.48  -7.48
         -7.47  -7.07  -7.07  -7.05  -6.84  -6.83  -4.16  -3.69  -3.69  -3.66
         -2.31  -2.30  -2.29  -2.17  -2.17  -1.87  -1.87  -1.86   2.71   2.72
          2.72   3.10   3.98   4.01   4.03   4.04   4.04   5.02   5.31   5.32
          5.32   6.10   6.10   6.10   6.23   6.24   6.25   7.66   7.70   7.88
          7.89   7.90   8.68   8.70   8.70   8.75  15.95  15.98  15.99  16.05
         16.49  16.53  16.74  16.76  16.76  17.39  17.39  17.39  18.14  18.19
         18.19  19.02  19.02  19.03  19.44  19.45  19.46  20.05  20.07  21.98
         28.38  28.39  28.44  29.85  29.89  30.03  30.04  30.05  51.72  51.73
         51.97  56.87  61.04  61.04  61.49  71.84  71.89  71.94  72.82  73.26
         87.58  87.60  87.64 102.66
siesta: Fermi energy =      -5.334550 eV

siesta: Program's energy decomposition (eV):
siesta: Ebs     =      -343.967133
siesta: Eions   =      1510.441798
siesta: Ena     =       465.382065
siesta: Ekin    =       324.912903
siesta: Enl     =       110.983451
siesta: DEna    =         5.158275
siesta: DUscf   =         1.525604
siesta: DUext   =         0.000000
siesta: Exc     =      -259.491875
siesta: eta*DQ  =         0.000000
siesta: Emadel  =         0.000000
siesta: Emeta   =         0.000000
siesta: Emolmec =         0.000000
siesta: Ekinion =         0.000000
siesta: Eharris =      -861.971479
siesta: Etot    =      -861.971375
siesta: FreeEng =      -861.971375

siesta: Final energy (eV):
siesta:  Band Struct. =    -343.967133
siesta:       Kinetic =     324.912903
siesta:       Hartree =      57.934057
siesta:    Ext. field =       0.000000
siesta:   Exch.-corr. =    -259.491875
siesta:  Ion-electron =    -446.402259
siesta:       Ion-ion =    -538.924201
siesta:       Ekinion =       0.000000
siesta:         Total =    -861.971375

siesta: Stress tensor (static) (eV/Ang**3):
siesta:     0.000859    0.000274    0.000274
siesta:     0.000274    0.000859    0.000274
siesta:     0.000274    0.000274    0.000859

siesta: Constrained stress tensor (static) (eV/Ang**3):
siesta:     0.000859    0.000274    0.000274
siesta:     0.000274    0.000859    0.000274
siesta:     0.000274    0.000274    0.000859

siesta: Cell volume =        161.390977 Ang**3

siesta: Pressure (static):
siesta:                Solid            Molecule  Units
siesta:          -0.00000935         -0.00001288  Ry/Bohr**3
siesta:          -0.00085859         -0.00118222  eV/Ang**3
siesta:          -1.37562627         -1.89414031  kBar
(Free)E+ p_basis*V_orbitals  =        -852.997772
(Free)Eharris+ p_basis*V_orbitals  =        -852.995820

* Maximum dynamic memory allocated : Node    0 =   101 MB

* Maximum memory occured during init_pulay_arrrays            

timer: CPU execution times:
timer:  Routine       Calls   Time/call    Tot.time        %
timer:  siesta            1    2829.545    2829.545   100.00
timer:  Setup             1       0.120       0.120     0.00
timer:  bands             3       0.559       1.676     0.06
timer:  writewave         3       0.007       0.020     0.00
timer:  KSV_init          1       0.000       0.000     0.00
timer:  IterMD           27     104.727    2827.625    99.93
timer:  hsparse          27       0.228       6.164     0.22
timer:  overlap          27       0.124       3.357     0.12
timer:  IterSCF         121      19.192    2322.270    82.07
timer:  kinefsm          54       0.129       6.964     0.25
timer:  nlefsm           54       4.906     264.949     9.36
timer:  DHSCF           148      10.241    1515.667    53.57
timer:  DHSCF1           27       0.047       1.272     0.04
timer:  DHSCF2           27       2.151      58.088     2.05
timer:  REORD           942       0.000       0.076     0.00
timer:  POISON          175       0.005       0.791     0.03
timer:  DHSCF3          148       9.041    1338.063    47.29
timer:  rhoofd          148       4.140     612.649    21.65
timer:  cellXC          148       0.011       1.663     0.06
timer:  vmat            148       4.885     722.941    25.55
timer:  MolMec           54       0.000       0.000     0.00
timer:  diagon          121       8.434    1020.475    36.06
timer:  c-eigval      15537       0.019     297.235    10.50
timer:  c-buildHS     15537       0.014     224.972     7.95
timer:  cdiag         30974       0.007     221.052     7.81
timer:  cdiag1        30974       0.001      16.237     0.57
timer:  cdiag2        30974       0.002      56.827     2.01
timer:  cdiag3        30974       0.005     143.228     5.06
timer:  cdiag4        30974       0.000       3.912     0.14
timer:  c-eigvec      15437       0.024     372.779    13.17
timer:  c-buildD      15436       0.023     350.628    12.39
timer:  DHSCF4           27       4.378     118.212     4.18
timer:  dfscf            27       4.218     113.892     4.03
timer:  overfsm          27       0.125       3.364     0.12
timer:  optical           1       0.000       0.000     0.00
  

elaps: ELAPSED times:
elaps:  Routine       Calls   Time/call    Tot.time        %
elaps:  siesta            1    2842.023    2842.023   100.00
elaps:  Setup             1       0.123       0.123     0.00
elaps:  bands             3       0.560       1.679     0.06
elaps:  writewave         3       0.007       0.021     0.00
elaps:  KSV_init          1       0.000       0.000     0.00
elaps:  IterMD           27     105.189    2840.093    99.93
elaps:  hsparse          27       0.228       6.159     0.22
elaps:  overlap          27       0.125       3.364     0.12
elaps:  IterSCF         121      19.280    2332.867    82.08
elaps:  kinefsm          54       0.130       7.004     0.25
elaps:  nlefsm           54       4.923     265.861     9.35
elaps:  DHSCF           148      10.283    1521.890    53.55
elaps:  DHSCF1           27       0.047       1.269     0.04
elaps:  DHSCF2           27       2.158      58.261     2.05
elaps:  REORD           942       0.000       0.071     0.00
elaps:  POISON          175       0.004       0.779     0.03
elaps:  DHSCF3          148       9.079    1343.685    47.28
elaps:  rhoofd          148       4.156     615.054    21.64
elaps:  cellXC          148       0.011       1.654     0.06
elaps:  vmat            148       4.906     726.149    25.55
elaps:  MolMec           54       0.000       0.000     0.00
elaps:  diagon          121       8.477    1025.691    36.09
elaps:  c-eigval      15537       0.019     299.286    10.53
elaps:  c-buildHS     15537       0.015     226.598     7.97
elaps:  cdiag         30974       0.007     222.260     7.82
elaps:  cdiag1        30974       0.001      16.343     0.58
elaps:  cdiag2        30974       0.002      58.368     2.05
elaps:  cdiag3        30974       0.005     142.794     5.02
elaps:  cdiag4        30974       0.000       4.011     0.14
elaps:  c-eigvec      15437       0.024     374.492    13.18
elaps:  c-buildD      15436       0.023     352.171    12.39
elaps:  DHSCF4           27       4.394     118.638     4.17
elaps:  dfscf            27       4.234     114.305     4.02
elaps:  overfsm          27       0.125       3.365     0.12
elaps:  optical           1       0.000       0.000     0.00
  
>> End of run:  10-MAY-2013   0:07:58

=====================================================================================
=   BAD TERMINATION OF ONE OF YOUR APPLICATION PROCESSES
=   EXIT CODE: 134
=   CLEANING UP REMAINING PROCESSES
=   YOU CAN IGNORE THE BELOW CLEANUP MESSAGES
=====================================================================================
APPLICATION TERMINATED WITH THE EXIT STRING: Aborted (signal 6)
