Siesta Version:                                        siesta-3.2
Architecture  : i686-apple-darwin10.8.0--unknown
Compiler flags: g95 -g -O2
SERIAL version

* Running in serial mode
>> Start of run:  14-MAY-2013  12:16:33

                           ***********************       
                           *  WELCOME TO SIESTA  *       
                           ***********************       

reinit: Reading from standard input
************************** Dump of input data file ****************************
# FDF for silicon
SystemName             silicon          # Descriptive name of the system
SystemLabel            si          # Short name for naming files
NumberOfAtoms 8
NumberOfSpecies 1
%block ChemicalSpeciesLabel
1 14 Si
%endblock ChemicalSpeciesLabel
LatticeConstant  5.05 Ang
##Basis set Definition##
PAO.BasisType          split        # Type of PAO basis set
PAO.EnergyShift        50 meV
PAO.BasisSize          DZP          # (DZP) Double-z + polarization
#%block LatticeVectors
#0.500 0.500 0.000
#0.500 0.000 0.500
#0.000 0.500 0.500
#%endblock LatticeVectors
AtomicCoordinatesFormat NotScaledCartesianAng
%block AtomicCoordinatesAndAtomicSpecies
	0.00000000	0.00000000	0.00000000  1 Si  1
	1.36000000	1.36000000	1.36000000  1 Si  2
	2.72000000	2.72000000	0.00000000  1 Si  3
	4.08000000	4.08000000	1.36000000  1 Si  4
	2.72000000	0.00000000	2.72000000  1 Si  5
	4.08000000	1.36000000	4.08000000  1 Si  6
	0.00000000	2.72000000	2.72000000  1 Si  7
	1.36000000	4.08000000	4.08000000  1 Si  8
%endblock AtomicCoordinatesAndAtomicSpecies
MeshCutoff 100.0 Ry # 100, 120, 180, 260
kgrid_cutoff 45.0 Bohr # 30, 35, 40, 45
DM.Mixingweight  0.3
DM.NumberPulay    3
DM.Tolerance      1.d-3
DM.UseSaveDM      true
ElectronicTemperature 25 meV
SolutionMethod    diagon
XC.functional     LDA	    # Local Density Approximation
XC.authors        CA           # Ceperley-Alder
SpinPolarized     false
MD.TypeOfRun           CG           # Type of dynamics:
MD.VariableCell        true
MD.NumCGsteps          100          # Number of CG steps for coordinate optimization
MD.MaxCGDispl          0.2 Bohr     # Maximum atomic displacement
                                    #   in one CG step (Bohr)
MD.MaxForceTol         0.04 eV/Ang  # Tolerance in the maximum
                                    #   atomic force (Ry/Bohr)
				
##Output Specification##
WriteMDhistory         true         # Trajectory information
WriteCoorStep          true
WriteCoorXmol          true
WriteMDXmol            true
WriteEigenvalues true
WriteKbands      true
WriteBands       true
WriteWaveFunctions true
WriteMullikenPoP   1
%block BandLines
1	1.000	1.000 1.000 L
25	0.000	0.000	0.000 \Gamma
30	2.000	0.000	0.000 X
10	2.000	0.500	0.500 U
35	0.000	0.000	0.000 \Gamma
%endblock BandLines
%block WaveFuncKPoints
0.0 0.0 0.0 from 1 to 50 # > 16 = 4/2*8 (Valenzelektronen/2, Atomzahl ...)
%endblock WaveFuncKpoints
************************** End of input data file *****************************

reinit: -----------------------------------------------------------------------
reinit: System Name: silicon
reinit: -----------------------------------------------------------------------
reinit: System Label: si                                                          
reinit: -----------------------------------------------------------------------

initatom: Reading input for the pseudopotentials and atomic orbitals ----------
 Species number:  1  Label: Si Atomic number: 14
Ground state valence configuration:   3s02  3p02
Reading pseudopotential information in formatted form from Si.psf

Valence configuration for pseudopotential generation:
3s( 2.00) rc: 1.75
3p( 2.00) rc: 1.94
3d( 0.00) rc: 2.09
4f( 0.00) rc: 2.09
For Si, standard SIESTA heuristics set lmxkb to 3
 (one more than the basis l, including polarization orbitals).
Use PS.lmax or PS.KBprojectors blocks to override.

<basis_specs>
===============================================================================
Si                   Z=  14    Mass=  28.090        Charge= 0.17977+309
Lmxo=1 Lmxkb= 3    BasisType=split      Semic=F
L=0  Nsemic=0  Cnfigmx=3
          n=1  nzeta=2  polorb=0
            splnorm:   0.15000    
               vcte:    0.0000    
               rinn:    0.0000    
                rcs:    0.0000      0.0000    
            lambdas:    1.0000      1.0000    
L=1  Nsemic=0  Cnfigmx=3
          n=1  nzeta=2  polorb=1
            splnorm:   0.15000    
               vcte:    0.0000    
               rinn:    0.0000    
                rcs:    0.0000      0.0000    
            lambdas:    1.0000      1.0000    
-------------------------------------------------------------------------------
L=0  Nkbl=1  erefs: 0.17977+309
L=1  Nkbl=1  erefs: 0.17977+309
L=2  Nkbl=1  erefs: 0.17977+309
L=3  Nkbl=1  erefs: 0.17977+309
===============================================================================
</basis_specs>

atom: Called for Si                    (Z =  14)

read_vps: Pseudopotential generation method:
read_vps: ATM3      Troullier-Martins                       
Total valence charge:    4.00000

xc_check: Exchange-correlation functional:
xc_check: Ceperley-Alder
V l=0 = -2*Zval/r beyond r=  2.5494
V l=1 = -2*Zval/r beyond r=  2.5494
V l=2 = -2*Zval/r beyond r=  2.5494
V l=3 = -2*Zval/r beyond r=  2.5494
All V_l potentials equal beyond r=  2.0613
This should be close to max(r_c) in ps generation
All pots = -2*Zval/r beyond r=  2.5494

VLOCAL1: 99.0% of the norm of Vloc inside     10.216 Ry
VLOCAL1: 99.9% of the norm of Vloc inside     23.282 Ry
atom: Maximum radius for 4*pi*r*r*local-pseudopot. charge    2.45560
atom: Maximum radius for r*vlocal+2*Zval:    2.14012
GHOST: No ghost state for L =  0
GHOST: No ghost state for L =  1
GHOST: No ghost state for L =  2
GHOST: No ghost state for L =  3

KBgen: Kleinman-Bylander projectors: 
   l= 0   rc=  2.782581   el= -0.796617   Ekb=  4.840502   kbcos=  0.288423
   l= 1   rc=  2.888916   el= -0.307040   Ekb=  1.512733   kbcos=  0.296968
   l= 2   rc=  2.962054   el=  0.002313   Ekb= -2.156507   kbcos= -0.061834
   l= 3   rc=  3.192765   el=  0.003402   Ekb= -0.600958   kbcos= -0.007408

KBgen: Total number of  Kleinman-Bylander projectors:   16
atom: -------------------------------------------------------------------------

atom: SANKEY-TYPE ORBITALS:
atom: Selected multiple-zeta basis: split     

SPLIT: Orbitals with angular momentum L= 0

SPLIT: Basis orbitals for state 3s

SPLIT: PAO cut-off radius determined from an
SPLIT: energy shift=  0.003675 Ry

   izeta = 1
                 lambda =    1.000000
                     rc =    6.116033
                 energy =   -0.793486
                kinetic =    0.528761
    potential(screened) =   -1.322246
       potential(ionic) =   -3.766038

   izeta = 2
                 rmatch =    4.530823
              splitnorm =    0.150000
                 energy =   -0.697320
                kinetic =    0.853435
    potential(screened) =   -1.550756
       potential(ionic) =   -4.120809

SPLIT: Orbitals with angular momentum L= 1

SPLIT: Basis orbitals for state 3p

SPLIT: PAO cut-off radius determined from an
SPLIT: energy shift=  0.003675 Ry

   izeta = 1
                 lambda =    1.000000
                     rc =    7.853192
                 energy =   -0.303674
                kinetic =    0.798475
    potential(screened) =   -1.102149
       potential(ionic) =   -3.307324

   izeta = 2
                 rmatch =    5.397360
              splitnorm =    0.150000
                 energy =   -0.229357
                kinetic =    1.170483
    potential(screened) =   -1.399841
       potential(ionic) =   -3.814095

POLgen: Perturbative polarization orbital with L=  2

POLgen: Polarization orbital for state 3p

   izeta = 1
                     rc =    7.853192
                 energy =    0.331669
                kinetic =    1.088595
    potential(screened) =   -0.756926
       potential(ionic) =   -2.714870
atom: Total number of Sankey-type orbitals: 13

atm_pop: Valence configuration (for local Pseudopot. screening):
 3s( 2.00)                                                            
 3p( 2.00)                                                            
Vna: chval, zval:    4.00000   4.00000

Vna:  Cut-off radius for the neutral-atom potential:   7.853192

atom: _________________________________________________________________________

prinput: Basis input ----------------------------------------------------------

PAO.BasisType split     

%block ChemicalSpeciesLabel
    1   14 Si                      # Species index, atomic number, species label
%endblock ChemicalSpeciesLabel

%block PAO.Basis                 # Define Basis set
Si                    2                    # Species label, number of l-shells
 n=3   0   2                         # n, l, Nzeta 
   6.116      4.531   
   1.000      1.000   
 n=3   1   2 P   1                   # n, l, Nzeta, Polarization, NzetaPol
   7.853      5.397   
   1.000      1.000   
%endblock PAO.Basis

prinput: ----------------------------------------------------------------------

coor:   Atomic-coordinates input format  =     Cartesian coordinates
coor:                                          (in Angstroms)

siesta: Atomic coordinates (Bohr) and species
siesta:      0.00000   0.00000   0.00000  1        1
siesta:      2.57003   2.57003   2.57003  1        2
siesta:      5.14006   5.14006   0.00000  1        3
siesta:      7.71009   7.71009   2.57003  1        4
siesta:      5.14006   0.00000   5.14006  1        5
siesta:      7.71009   2.57003   7.71009  1        6
siesta:      0.00000   5.14006   5.14006  1        7
siesta:      2.57003   7.71009   7.71009  1        8

siesta: System type = bulk      

initatomlists: Number of atoms, orbitals, and projectors:      8   104   128

siesta: ******************** Simulation parameters ****************************
siesta:
siesta: The following are some of the parameters of the simulation.
siesta: A complete list of the parameters used, including default values,
siesta: can be found in file out.fdf
siesta:
redata: Non-Collinear-spin run           =     F
redata: SpinPolarized (Up/Down) run      =     F
redata: Number of spin components        =     1
redata: Long output                      =     F
redata: Number of Atomic Species         =        1
redata: Charge density info will appear in .RHO file
redata: Write Mulliken Pop.              =     Atomic and Orbital charges
redata: Mesh Cutoff                      =   100.0000  Ry
redata: Net charge of the system         =     0.0000 |e|
redata: Max. number of SCF Iter          =       50
redata: Performing Pulay mixing using    =     3 iterations
redata: Mix DM in first SCF step ?       =     F
redata: Write Pulay info on disk?        =     F
redata: Discard 1st Pulay DM after  kick =     F
redata: New DM Mixing Weight             =     0.3000
redata: New DM Occupancy tolerance       = 0.000000000001
redata: No kicks to SCF
redata: DM Mixing Weight for Kicks       =     0.5000
redata: DM Tolerance for SCF             =     0.001000
redata: Require Energy convergence for SCF =     F
redata: DM Energy tolerance for SCF      =     0.000100 eV
redata: Require Harris convergence for SCF =     F
redata: DM Harris energy tolerance for SCF =     0.000100 eV
redata: Using Saved Data (generic)   =     F
redata: Use continuation files for DM    =     T
redata: Neglect nonoverlap interactions  =     F
redata: Method of Calculation            =     Diagonalization
redata: Divide and Conquer               =     T
redata: Electronic Temperature           =     0.0018  Ry
redata: Fix the spin of the system       =     F
redata: Dynamics option                  =     CG coord. optimization
redata: Variable cell                    =     T
redata: Use continuation files for CG    =     F
redata: Max atomic displ per move        =     0.2000  Bohr
redata: Maximum number of CG moves       =      100
redata: Force tolerance                  =     0.0016  Ry/Bohr
redata: Stress tolerance                 =     1.0000  GPa
redata: ***********************************************************************
Total number of electrons:    32.000000
Total ionic charge:    32.000000
 Kpoints in:  500 . Kpoints trimmed:  500

siesta: k-grid: Number of k-points =   500
siesta: k-grid: Cutoff (effective) =    25.250 Ang
siesta: k-grid: Supercell and displacements
siesta: k-grid:    0  10   0      0.500
siesta: k-grid:    0   0  10      0.500
siesta: k-grid:   10   0   0      0.500
Naive supercell factors:     5    5    5

superc: Internal auxiliary supercell:     5 x     5 x     5  =     125
superc: Number of atoms, orbitals, and projectors:   1000  13000  16000

* Maximum dynamic memory allocated =     2 MB

siesta:                 ==============================
                            Begin CG move =      0
                        ==============================

outcoor: Atomic coordinates (Ang):                          
    0.00000000    0.00000000    0.00000000   1       1  Si
    1.36000000    1.36000000    1.36000000   1       2  Si
    2.72000000    2.72000000    0.00000000   1       3  Si
    4.08000000    4.08000000    1.36000000   1       4  Si
    2.72000000    0.00000000    2.72000000   1       5  Si
    4.08000000    1.36000000    4.08000000   1       6  Si
    0.00000000    2.72000000    2.72000000   1       7  Si
    1.36000000    4.08000000    4.08000000   1       8  Si

superc: Internal auxiliary supercell:     5 x     5 x     5  =     125
superc: Number of atoms, orbitals, and projectors:   1000  13000  16000

outcell: Unit cell vectors (Ang):
        5.050000    0.000000    0.000000
        0.000000    5.050000    0.000000
        0.000000    0.000000    5.050000

outcell: Cell vector modules (Ang)   :    5.050000    5.050000    5.050000
outcell: Cell angles (23,13,12) (deg):     90.0000     90.0000     90.0000
outcell: Cell volume (Ang**3)        :    128.7876
New_DM. Step:     1
Initializing Density Matrix...

InitMesh: MESH =    32 x    32 x    32 =       32768
InitMesh: Mesh cutoff (required, used) =   100.000   110.973 Ry

* Maximum dynamic memory allocated =    83 MB

stepf: Fermi-Dirac step function

siesta: Program's energy decomposition (eV):
siesta: Ebs     =      -392.863864
siesta: Eions   =      1510.441798
siesta: Ena     =       449.532726
siesta: Ekin    =       288.938730
siesta: Enl     =       148.596931
siesta: DEna    =         0.000001
siesta: DUscf   =         0.000000
siesta: DUext   =         0.000000
siesta: Exc     =      -267.579655
siesta: eta*DQ  =         0.000000
siesta: Emadel  =         0.000000
siesta: Emeta   =         0.000000
siesta: Emolmec =         0.000000
siesta: Ekinion =         0.000000
siesta: Eharris =      -856.005331
siesta: Etot    =      -890.953066
siesta: FreeEng =      -890.953066

siesta: iscf   Eharris(eV)      E_KS(eV)   FreeEng(eV)   dDmax  Ef(eV)
siesta:    1     -856.0053     -890.9531     -890.9531  1.6661 -6.2128
timer: Routine,Calls,Time,% = IterSCF        1      62.391  98.43
elaps: Routine,Calls,Wall,% = IterSCF        1      62.807  98.17
siesta:    2     -855.5131     -854.9046     -854.9069  0.2420 -5.8391
siesta:    3     -855.2331     -858.9338     -858.9357  0.1814 -5.9472
siesta:    4     -855.2279     -855.6635     -855.6653  0.0275 -5.9514
siesta:    5     -855.2269     -855.1769     -855.1787  0.0058 -5.9545
siesta:    6     -855.2267     -855.2633     -855.2651  0.0041 -5.9564
siesta:    7     -855.2267     -855.2648     -855.2666  0.0032 -5.9567
siesta:    8     -855.2267     -855.2488     -855.2506  0.0015 -5.9566
siesta:    9     -855.2267     -855.2367     -855.2385  0.0007 -5.9565

siesta: E_KS(eV) =             -855.2274

siesta: E_KS - E_eggbox =      -855.2274

siesta: Atomic forces (eV/Ang):
----------------------------------------
   Tot    0.001190    0.001194    0.001196
----------------------------------------
   Max    4.555324
   Res    3.044547    sqrt( Sum f_i^2 / 3N )
----------------------------------------
   Max    4.555324    constrained

Stress-tensor-Voigt (kbar):     -382.38     -382.38     -382.38      125.70      125.70      125.70
(Free)E + p*V (eV/cell)     -824.4930
Target enthalpy (eV/cell)     -855.2292

siesta: Stress tensor (static) (eV/Ang**3):
        -0.238658    0.078456    0.078456
         0.078456   -0.238658    0.078456
         0.078456    0.078456   -0.238658

siesta: Pressure (static):        382.37687699  kBar

siesta: Stress tensor (total) (eV/Ang**3):
        -0.238658    0.078456    0.078456
         0.078456   -0.238658    0.078456
         0.078456    0.078456   -0.238658

siesta: Pressure (total):        382.37687699  kBar

mulliken: Mulliken Atomic and Orbital Populations:

Species: Si                  
Atom  Qatom  Qorb
               3s      3s      3py     3pz     3px     3py     3pz     3px     
               3Pdxy   3Pdyz   3Pdz2   3Pdxz   3Pdx2-y2
   1  4.309   0.221   0.832   0.076   0.076   0.076   0.708   0.708   0.708
              0.191   0.191   0.165   0.191   0.165
   2  3.837   0.650   0.587   0.064   0.064   0.064   0.608   0.608   0.608
              0.139   0.139   0.083   0.139   0.083
   3  3.904   0.521   0.643  -0.001   0.105  -0.001   0.677   0.618   0.677
              0.163   0.149   0.089   0.149   0.115
   4  4.048   0.384   0.719   0.064  -0.050   0.064   0.682   0.744   0.682
              0.163   0.168   0.151   0.168   0.107
   5  3.904   0.521   0.643   0.105  -0.001  -0.001   0.618   0.677   0.677
              0.149   0.149   0.109   0.163   0.096
   6  4.048   0.384   0.719  -0.050   0.064   0.064   0.744   0.682   0.682
              0.168   0.168   0.118   0.163   0.140
   7  3.904   0.521   0.643  -0.001  -0.001   0.105   0.677   0.677   0.618
              0.149   0.163   0.109   0.149   0.096
   8  4.048   0.384   0.719   0.064   0.064  -0.050   0.682   0.682   0.744
              0.168   0.163   0.118   0.168   0.140

mulliken: Qtot =       32.000

cgvc: No target stress found, assuming hydrostatic MD.TargetPressure.

cgvc: Target stress (kBar)
cgvc:        -0.000       0.000       0.000
cgvc:         0.000      -0.000       0.000
cgvc:         0.000       0.000      -0.000

* Maximum dynamic memory allocated =    85 MB

siesta:                 ==============================
                            Begin CG move =      1
                        ==============================

outcoor: Atomic coordinates (Ang):                          
    0.01810487    0.01810487    0.01810488   1       1  Si
    1.36641542    1.36641542    1.36641546   1       2  Si
    2.72933127    2.72933127    0.00533435   1       3  Si
    4.06997603    4.06997605    1.37052369   1       4  Si
    2.72933125    0.00533436    2.72933126   1       5  Si
    4.06997607    1.37052368    4.06997602   1       6  Si
    0.00533437    2.72933126    2.72933129   1       7  Si
    1.37052367    4.06997607    4.06997604   1       8  Si
 Kpoints in:  500 . Kpoints trimmed:  500

siesta: k-grid: Number of k-points =   500
siesta: k-grid: Cutoff (effective) =    25.426 Ang
siesta: k-grid: Supercell and displacements
siesta: k-grid:    0   0  10      0.500
siesta: k-grid:   10   0   0      0.500
siesta: k-grid:    0  10   0      0.500
Naive supercell factors:     5    5    5

superc: Internal auxiliary supercell:     5 x     5 x     5  =     125
superc: Number of atoms, orbitals, and projectors:   1000  13000  16000

outcell: Unit cell vectors (Ang):
        5.085220   -0.011578   -0.011578
       -0.011578    5.085220   -0.011578
       -0.011578   -0.011578    5.085220

outcell: Cell vector modules (Ang)   :    5.085247    5.085247    5.085247
outcell: Cell angles (23,13,12) (deg):     90.2606     90.2606     90.2606
outcell: Cell volume (Ang**3)        :    131.4990
New_DM. Step:     2
Re-using DM from previous geometry...
Re-using DM without extrapolation (not allowed)
Density Matrix sparsity pattern changed.

InitMesh: MESH =    32 x    32 x    32 =       32768
InitMesh: Mesh cutoff (required, used) =   100.000   109.445 Ry

siesta: iscf   Eharris(eV)      E_KS(eV)   FreeEng(eV)   dDmax  Ef(eV)
siesta:    1     -857.0634     -855.7211     -855.7229  0.0773 -5.9121
siesta:    2     -857.0819     -857.0418     -857.0439  0.0257 -5.8658
siesta:    3     -857.0554     -857.0126     -857.0148  0.0022 -5.8900
siesta:    4     -857.0553     -857.0361     -857.0382  0.0009 -5.8930

siesta: E_KS(eV) =             -857.0558

siesta: Atomic forces (eV/Ang):
----------------------------------------
   Tot    0.006345    0.006336    0.006321
----------------------------------------
   Max    3.447581
   Res    2.354716    sqrt( Sum f_i^2 / 3N )
----------------------------------------
   Max    3.447581    constrained

Stress-tensor-Voigt (kbar):     -321.00     -321.00     -321.00       90.27       90.27       90.27
(Free)E + p*V (eV/cell)     -830.7124
Target enthalpy (eV/cell)     -857.0580

siesta: Stress tensor (static) (eV/Ang**3):
        -0.200348    0.056344    0.056344
         0.056344   -0.200348    0.056344
         0.056344    0.056344   -0.200348

siesta: Pressure (static):        320.99610389  kBar

siesta: Stress tensor (total) (eV/Ang**3):
        -0.200348    0.056344    0.056344
         0.056344   -0.200348    0.056344
         0.056344    0.056344   -0.200348

siesta: Pressure (total):        320.99610389  kBar

mulliken: Mulliken Atomic and Orbital Populations:

Species: Si                  
Atom  Qatom  Qorb
               3s      3s      3py     3pz     3px     3py     3pz     3px     
               3Pdxy   3Pdyz   3Pdz2   3Pdxz   3Pdx2-y2
   1  4.201   0.277   0.787   0.053   0.053   0.053   0.713   0.713   0.713
              0.182   0.182   0.146   0.182   0.146
   2  3.872   0.651   0.582   0.086   0.086   0.086   0.602   0.602   0.602
              0.137   0.137   0.082   0.137   0.082
   3  3.933   0.526   0.638   0.029   0.118   0.029   0.664   0.614   0.664
              0.159   0.147   0.089   0.147   0.111
   4  4.043   0.406   0.703   0.081  -0.041   0.081   0.669   0.740   0.669
              0.160   0.167   0.141   0.167   0.103
   5  3.933   0.526   0.638   0.118   0.029   0.029   0.614   0.664   0.664
              0.147   0.147   0.105   0.159   0.094
   6  4.043   0.406   0.703  -0.041   0.081   0.081   0.740   0.669   0.669
              0.167   0.167   0.113   0.160   0.131
   7  3.933   0.526   0.638   0.029   0.029   0.118   0.664   0.664   0.614
              0.147   0.159   0.105   0.147   0.094
   8  4.043   0.406   0.703   0.081   0.081  -0.041   0.669   0.669   0.740
              0.167   0.160   0.113   0.167   0.131

mulliken: Qtot =       32.000

* Maximum dynamic memory allocated =    97 MB

siesta:                 ==============================
                            Begin CG move =      2
                        ==============================

outcoor: Atomic coordinates (Ang):                          
    0.04725214    0.04725215    0.04725218   1       1  Si
    1.37671149    1.37671149    1.37671159   1       2  Si
    2.74402761    2.74402762    0.01444576   1       3  Si
    4.05324849    4.05324855    1.38842009   1       4  Si
    2.74402757    0.01444580    2.74402758   1       5  Si
    4.05324859    1.38842005    4.05324847   1       6  Si
    0.01444580    2.74402758    2.74402767   1       7  Si
    1.38842002    4.05324859    4.05324851   1       8  Si
 Kpoints in:  500 . Kpoints trimmed:  500

siesta: k-grid: Number of k-points =   500
siesta: k-grid: Cutoff (effective) =    25.709 Ang
siesta: k-grid: Supercell and displacements
siesta: k-grid:    0   0  10      0.500
siesta: k-grid:   10   0   0      0.500
siesta: k-grid:    0  10   0      0.500
Naive supercell factors:     5    5    5

superc: Internal auxiliary supercell:     5 x     5 x     5  =     125
superc: Number of atoms, orbitals, and projectors:   1000  13000  16000

outcell: Unit cell vectors (Ang):
        5.141573   -0.030104   -0.030104
       -0.030104    5.141573   -0.030104
       -0.030104   -0.030104    5.141573

outcell: Cell vector modules (Ang)   :    5.141749    5.141749    5.141749
outcell: Cell angles (23,13,12) (deg):     90.6689     90.6689     90.6689
outcell: Cell volume (Ang**3)        :    135.9074
New_DM. Step:     3
Re-using DM from previous geometry...
Re-using DM without extrapolation (not allowed)
Density Matrix sparsity pattern changed.

InitMesh: MESH =    32 x    32 x    32 =       32768
InitMesh: Mesh cutoff (required, used) =   100.000   107.078 Ry

siesta: iscf   Eharris(eV)      E_KS(eV)   FreeEng(eV)   dDmax  Ef(eV)
siesta:    1     -859.2074     -857.2320     -857.2341  0.0953 -5.7898
siesta:    2     -859.2996     -859.1115     -859.1127  0.0573 -5.7286
siesta:    3     -859.1751     -859.0057     -859.0069  0.0103 -5.7623
siesta:    4     -859.1743     -859.1388     -859.1400  0.0014 -5.7659
siesta:    5     -859.1742     -859.1537     -859.1549  0.0008 -5.7661

siesta: E_KS(eV) =             -859.1703

siesta: Atomic forces (eV/Ang):
----------------------------------------
   Tot   -0.004982   -0.004970   -0.004965
----------------------------------------
   Max    2.478101
   Res    1.501866    sqrt( Sum f_i^2 / 3N )
----------------------------------------
   Max    2.478101    constrained

Stress-tensor-Voigt (kbar):     -239.03     -239.03     -239.03       42.99       42.99       42.99
(Free)E + p*V (eV/cell)     -838.8955
Target enthalpy (eV/cell)     -859.1716

siesta: Stress tensor (static) (eV/Ang**3):
        -0.149190    0.026830    0.026830
         0.026830   -0.149190    0.026830
         0.026830    0.026830   -0.149190

siesta: Pressure (static):        239.03142411  kBar

siesta: Stress tensor (total) (eV/Ang**3):
        -0.149190    0.026830    0.026830
         0.026830   -0.149190    0.026830
         0.026830    0.026830   -0.149190

siesta: Pressure (total):        239.03142411  kBar

mulliken: Mulliken Atomic and Orbital Populations:

Species: Si                  
Atom  Qatom  Qorb
               3s      3s      3py     3pz     3px     3py     3pz     3px     
               3Pdxy   3Pdyz   3Pdz2   3Pdxz   3Pdx2-y2
   1  4.080   0.383   0.714   0.050   0.050   0.050   0.697   0.697   0.697
              0.168   0.168   0.120   0.168   0.120
   2  3.914   0.651   0.574   0.113   0.113   0.113   0.595   0.595   0.595
              0.134   0.134   0.081   0.134   0.081
   3  3.970   0.540   0.625   0.068   0.121   0.068   0.647   0.617   0.647
              0.153   0.145   0.089   0.145   0.103
   4  4.032   0.449   0.675   0.099  -0.019   0.099   0.652   0.723   0.652
              0.154   0.162   0.125   0.162   0.097
   5  3.970   0.540   0.625   0.121   0.068   0.068   0.617   0.647   0.647
              0.145   0.145   0.099   0.153   0.093
   6  4.032   0.449   0.675  -0.019   0.099   0.099   0.723   0.652   0.653
              0.162   0.162   0.104   0.154   0.118
   7  3.970   0.540   0.625   0.068   0.068   0.121   0.647   0.647   0.617
              0.145   0.153   0.099   0.145   0.093
   8  4.032   0.449   0.675   0.099   0.099  -0.019   0.652   0.652   0.723
              0.162   0.154   0.104   0.162   0.118

mulliken: Qtot =       32.000

* Maximum dynamic memory allocated =    98 MB

siesta:                 ==============================
                            Begin CG move =      3
                        ==============================

outcoor: Atomic coordinates (Ang):                          
    0.09434728    0.09434730    0.09434735   1       1  Si
    1.39326557    1.39326556    1.39326576   1       2  Si
    2.76694351    2.76694352    0.03049973   1       3  Si
    4.02472011    4.02472023    1.41976403   1       4  Si
    2.76694343    0.03049980    2.76694345   1       5  Si
    4.02472031    1.41976395    4.02472007   1       6  Si
    0.03049981    2.76694345    2.76694362   1       7  Si
    1.41976389    4.02472032    4.02472016   1       8  Si
 Kpoints in:  500 . Kpoints trimmed:  500

siesta: k-grid: Number of k-points =   500
siesta: k-grid: Cutoff (effective) =    26.162 Ang
siesta: k-grid: Supercell and displacements
siesta: k-grid:    0   0  10      0.500
siesta: k-grid:   10   0   0      0.500
siesta: k-grid:    0  10   0      0.500
Naive supercell factors:     5    5    5

superc: Internal auxiliary supercell:     5 x     5 x     5  =     125
superc: Number of atoms, orbitals, and projectors:   1000  13000  16000

outcell: Unit cell vectors (Ang):
        5.231737   -0.059744   -0.059744
       -0.059744    5.231737   -0.059744
       -0.059744   -0.059744    5.231737

outcell: Cell vector modules (Ang)   :    5.232419    5.232419    5.232419
outcell: Cell angles (23,13,12) (deg):     91.3009     91.3009     91.3009
outcell: Cell volume (Ang**3)        :    143.1418
New_DM. Step:     4
Re-using DM from previous geometry...
Re-using DM without extrapolation (not allowed)
Density Matrix sparsity pattern changed.

InitMesh: MESH =    32 x    32 x    32 =       32768
InitMesh: Mesh cutoff (required, used) =   100.000   103.480 Ry

siesta: iscf   Eharris(eV)      E_KS(eV)   FreeEng(eV)   dDmax  Ef(eV)
siesta:    1     -861.0272     -858.3499     -858.3511  0.0843 -5.7341
siesta:    2     -861.4720     -860.5663     -860.5667  0.1106 -5.7052
siesta:    3     -860.8743     -860.2752     -860.2755  0.0299 -5.7099
siesta:    4     -860.8716     -860.7645     -860.7648  0.0031 -5.7130
siesta:    5     -860.8716     -860.7984     -860.7987  0.0020 -5.7125
siesta:    6     -860.8715     -860.8554     -860.8557  0.0005 -5.7118

siesta: E_KS(eV) =             -860.8648

siesta: Atomic forces (eV/Ang):
----------------------------------------
   Tot   -0.002244   -0.002241   -0.002211
----------------------------------------
   Max    1.556380
   Res    0.771913    sqrt( Sum f_i^2 / 3N )
----------------------------------------
   Max    1.556380    constrained

Stress-tensor-Voigt (kbar):     -144.71     -144.71     -144.71      -12.35      -12.35      -12.35
(Free)E + p*V (eV/cell)     -847.9364
Target enthalpy (eV/cell)     -860.8651

siesta: Stress tensor (static) (eV/Ang**3):
        -0.090321   -0.007706   -0.007706
        -0.007706   -0.090321   -0.007706
        -0.007706   -0.007706   -0.090321

siesta: Pressure (static):        144.71121250  kBar

siesta: Stress tensor (total) (eV/Ang**3):
        -0.090321   -0.007706   -0.007706
        -0.007706   -0.090321   -0.007706
        -0.007706   -0.007706   -0.090321

siesta: Pressure (total):        144.71121250  kBar

mulliken: Mulliken Atomic and Orbital Populations:

Species: Si                  
Atom  Qatom  Qorb
               3s      3s      3py     3pz     3px     3py     3pz     3px     
               3Pdxy   3Pdyz   3Pdz2   3Pdxz   3Pdx2-y2
   1  3.992   0.541   0.625   0.112   0.112   0.112   0.625   0.625   0.625
              0.144   0.144   0.093   0.144   0.093
   2  3.969   0.639   0.574   0.151   0.151   0.151   0.581   0.581   0.581
              0.133   0.133   0.080   0.133   0.080
   3  4.001   0.545   0.620   0.124   0.117   0.124   0.616   0.623   0.616
              0.144   0.144   0.092   0.144   0.092
   4  4.012   0.510   0.640   0.133   0.055   0.133   0.618   0.666   0.618
              0.145   0.150   0.104   0.150   0.090
   5  4.001   0.545   0.620   0.117   0.124   0.124   0.623   0.616   0.616
              0.144   0.144   0.092   0.144   0.092
   6  4.012   0.510   0.640   0.055   0.133   0.133   0.666   0.618   0.618
              0.150   0.150   0.093   0.145   0.100
   7  4.001   0.545   0.620   0.124   0.124   0.117   0.616   0.616   0.623
              0.144   0.144   0.092   0.144   0.092
   8  4.012   0.510   0.640   0.133   0.133   0.055   0.618   0.618   0.666
              0.150   0.145   0.093   0.150   0.100

mulliken: Qtot =       32.000

* Maximum dynamic memory allocated =    98 MB

siesta:                 ==============================
                            Begin CG move =      4
                        ==============================

outcoor: Atomic coordinates (Ang):                          
    0.15091343    0.15091347    0.15091355   1       1  Si
    1.41301935    1.41301932    1.41301966   1       2  Si
    2.79315748    2.79315750    0.05188547   1       3  Si
    3.98808519    3.98808539    1.46124440   1       4  Si
    2.79315734    0.05188559    2.79315738   1       5  Si
    3.98808552    1.46124427    3.98808511   1       6  Si
    0.05188560    2.79315737    2.79315766   1       7  Si
    1.46124416    3.98808553    3.98808526   1       8  Si
 Kpoints in:  405 . Kpoints trimmed:  365

siesta: k-grid: Number of k-points =   365
siesta: k-grid: Cutoff (effective) =    24.031 Ang
siesta: k-grid: Supercell and displacements
siesta: k-grid:    0   0   9      0.000
siesta: k-grid:    9   0   0      0.000
siesta: k-grid:    0   9   0      0.000
Naive supercell factors:     5    5    5

superc: Internal auxiliary supercell:     5 x     5 x     5  =     125
superc: Number of atoms, orbitals, and projectors:   1000  13000  16000

outcell: Unit cell vectors (Ang):
        5.338631   -0.094884   -0.094884
       -0.094884    5.338631   -0.094884
       -0.094884   -0.094884    5.338631

outcell: Cell vector modules (Ang)   :    5.340317    5.340317    5.340317
outcell: Cell angles (23,13,12) (deg):     92.0177     92.0177     92.0177
outcell: Cell volume (Ang**3)        :    152.0103
New_DM. Step:     5
Re-using DM from previous geometry...
Re-using DM without extrapolation (not allowed)
Density Matrix sparsity pattern changed.

InitMesh: MESH =    36 x    36 x    36 =       46656
InitMesh: Mesh cutoff (required, used) =   100.000   125.919 Ry

siesta: iscf   Eharris(eV)      E_KS(eV)   FreeEng(eV)   dDmax  Ef(eV)
siesta:    1     -861.2061     -858.9099     -858.9102  0.0739 -5.6032
siesta:    2     -862.2676     -860.1653     -860.1656  0.1180 -5.6500
siesta:    3     -860.8584     -860.0299     -860.0315  0.0379 -5.6308
siesta:    4     -860.8576     -860.6336     -860.6342  0.0046 -5.6355
siesta:    5     -860.8573     -860.7255     -860.7260  0.0025 -5.6346
siesta:    6     -860.8572     -860.8097     -860.8102  0.0007 -5.6334

siesta: E_KS(eV) =             -860.8301

siesta: Atomic forces (eV/Ang):
----------------------------------------
   Tot   -0.003446   -0.003441   -0.003429
----------------------------------------
   Max    1.687230
   Res    1.184841    sqrt( Sum f_i^2 / 3N )
----------------------------------------
   Max    1.687230    constrained

Stress-tensor-Voigt (kbar):      -78.11      -78.11      -78.11      -58.06      -58.06      -58.06
(Free)E + p*V (eV/cell)     -853.4202
Target enthalpy (eV/cell)     -860.8306

siesta: Stress tensor (static) (eV/Ang**3):
        -0.048749   -0.036237   -0.036237
        -0.036237   -0.048749   -0.036237
        -0.036237   -0.036237   -0.048749

siesta: Pressure (static):         78.10540839  kBar

siesta: Stress tensor (total) (eV/Ang**3):
        -0.048749   -0.036237   -0.036237
        -0.036237   -0.048749   -0.036237
        -0.036237   -0.036237   -0.048749

siesta: Pressure (total):         78.10540839  kBar

mulliken: Mulliken Atomic and Orbital Populations:

Species: Si                  
Atom  Qatom  Qorb
               3s      3s      3py     3pz     3px     3py     3pz     3px     
               3Pdxy   3Pdyz   3Pdz2   3Pdxz   3Pdx2-y2
   1  4.006   0.703   0.545   0.235   0.235   0.235   0.517   0.517   0.517
              0.120   0.120   0.072   0.120   0.072
   2  3.999   0.604   0.593   0.174   0.174   0.174   0.572   0.572   0.572
              0.134   0.134   0.082   0.134   0.082
   3  4.002   0.537   0.625   0.180   0.082   0.180   0.578   0.640   0.578
              0.136   0.142   0.100   0.142   0.081
   4  3.997   0.575   0.606   0.170   0.146   0.170   0.579   0.594   0.579
              0.134   0.135   0.089   0.135   0.084
   5  4.002   0.537   0.625   0.082   0.180   0.180   0.640   0.578   0.578
              0.142   0.142   0.086   0.136   0.095
   6  3.997   0.575   0.606   0.146   0.170   0.170   0.594   0.579   0.579
              0.135   0.135   0.085   0.134   0.087
   7  4.002   0.537   0.625   0.180   0.180   0.082   0.578   0.578   0.640
              0.142   0.136   0.086   0.142   0.095
   8  3.997   0.575   0.606   0.170   0.170   0.146   0.579   0.579   0.594
              0.135   0.134   0.085   0.135   0.087

mulliken: Qtot =       32.000

* Maximum dynamic memory allocated =    98 MB

siesta:                 ==============================
                            Begin CG move =      5
                        ==============================

outcoor: Atomic coordinates (Ang):                          
    0.12673225    0.12673228    0.12673235   1       1  Si
    1.40459184    1.40459182    1.40459210   1       2  Si
    2.78212294    2.78212295    0.04246806   1       3  Si
    4.00405623    4.00405640    1.44301040   1       4  Si
    2.78212282    0.04246816    2.78212285   1       5  Si
    4.00405651    1.44301029    4.00405617   1       6  Si
    0.04246817    2.78212285    2.78212309   1       7  Si
    1.44301020    4.00405652    4.00405630   1       8  Si
 Kpoints in:  405 . Kpoints trimmed:  365

siesta: k-grid: Number of k-points =   365
siesta: k-grid: Cutoff (effective) =    23.824 Ang
siesta: k-grid: Supercell and displacements
siesta: k-grid:    0   0   9      0.000
siesta: k-grid:    9   0   0      0.000
siesta: k-grid:    0   9   0      0.000
Naive supercell factors:     5    5    5

superc: Internal auxiliary supercell:     5 x     5 x     5  =     125
superc: Number of atoms, orbitals, and projectors:   1000  13000  16000

outcell: Unit cell vectors (Ang):
        5.293119   -0.079923   -0.079923
       -0.079923    5.293119   -0.079923
       -0.079923   -0.079923    5.293119

outcell: Cell vector modules (Ang)   :    5.294326    5.294326    5.294326
outcell: Cell angles (23,13,12) (deg):     91.7167     91.7167     91.7167
outcell: Cell volume (Ang**3)        :    148.1954
New_DM. Step:     6
Re-using DM from previous geometry...
Re-using DM without extrapolation (not allowed)
Density Matrix sparsity pattern changed.

InitMesh: MESH =    32 x    32 x    32 =       32768
InitMesh: Mesh cutoff (required, used) =   100.000   101.154 Ry

siesta: iscf   Eharris(eV)      E_KS(eV)   FreeEng(eV)   dDmax  Ef(eV)
siesta:    1     -861.1477     -861.6404     -861.6410  0.0278 -5.7162
siesta:    2     -861.3148     -860.9736     -860.9738  0.0620 -5.6756
siesta:    3     -861.0889     -861.1987     -861.1988  0.0137 -5.6934
siesta:    4     -861.0885     -861.0593     -861.0594  0.0021 -5.6912
siesta:    5     -861.0884     -861.0664     -861.0665  0.0015 -5.6916
siesta:    6     -861.0885     -861.0824     -861.0825  0.0002 -5.6922

siesta: E_KS(eV) =             -861.0854

siesta: Atomic forces (eV/Ang):
----------------------------------------
   Tot    0.002773    0.002880    0.002966
----------------------------------------
   Max    1.031513
   Res    0.893558    sqrt( Sum f_i^2 / 3N )
----------------------------------------
   Max    1.031513    constrained

Stress-tensor-Voigt (kbar):     -101.64     -101.64     -101.63      -40.67      -40.66      -40.67
(Free)E + p*V (eV/cell)     -851.6846
Target enthalpy (eV/cell)     -861.0855

siesta: Stress tensor (static) (eV/Ang**3):
        -0.063439   -0.025381   -0.025381
        -0.025381   -0.063435   -0.025381
        -0.025381   -0.025381   -0.063432

siesta: Pressure (static):        101.63602801  kBar

siesta: Stress tensor (total) (eV/Ang**3):
        -0.063439   -0.025381   -0.025381
        -0.025381   -0.063435   -0.025381
        -0.025381   -0.025381   -0.063432

siesta: Pressure (total):        101.63602801  kBar

mulliken: Mulliken Atomic and Orbital Populations:

Species: Si                  
Atom  Qatom  Qorb
               3s      3s      3py     3pz     3px     3py     3pz     3px     
               3Pdxy   3Pdyz   3Pdz2   3Pdxz   3Pdx2-y2
   1  3.985   0.635   0.577   0.175   0.175   0.175   0.566   0.566   0.566
              0.130   0.130   0.080   0.130   0.080
   2  3.989   0.620   0.583   0.168   0.168   0.168   0.574   0.574   0.574
              0.133   0.133   0.081   0.133   0.081
   3  4.005   0.543   0.621   0.157   0.099   0.157   0.595   0.632   0.595
              0.139   0.143   0.096   0.143   0.085
   4  4.004   0.552   0.617   0.156   0.109   0.156   0.595   0.623   0.595
              0.138   0.141   0.094   0.141   0.086
   5  4.005   0.543   0.621   0.099   0.157   0.157   0.632   0.595   0.595
              0.143   0.143   0.088   0.139   0.093
   6  4.004   0.552   0.617   0.109   0.156   0.156   0.623   0.595   0.595
              0.141   0.141   0.088   0.138   0.092
   7  4.005   0.543   0.621   0.157   0.157   0.099   0.595   0.595   0.632
              0.143   0.139   0.088   0.143   0.093
   8  4.004   0.552   0.617   0.156   0.156   0.109   0.595   0.595   0.623
              0.141   0.138   0.088   0.141   0.092

mulliken: Qtot =       32.000

cgvc: Finished line minimization    1.  Mean atomic displacement =    0.1677

* Maximum dynamic memory allocated =   101 MB

siesta:                 ==============================
                            Begin CG move =      6
                        ==============================

outcoor: Atomic coordinates (Ang):                          
    0.11345853    0.11345849    0.11345804   1       1  Si
    1.48047311    1.48047166    1.48046998   1       2  Si
    2.80526641    2.80526393    0.12152796   1       3  Si
    4.13635691    4.13635302    1.48012845   1       4  Si
    2.80526680    0.12152881    2.80526177   1       5  Si
    4.13635562    1.48012238    4.13634625   1       6  Si
    0.12152890    2.80526423    2.80526157   1       7  Si
    1.48011622    4.13634899    4.13634564   1       8  Si
 Kpoints in:  405 . Kpoints trimmed:  365

siesta: k-grid: Number of k-points =   365
siesta: k-grid: Cutoff (effective) =    24.303 Ang
siesta: k-grid: Supercell and displacements
siesta: k-grid:    0   0   9      0.000
siesta: k-grid:    0   9   0      0.000
siesta: k-grid:    9   0   0      0.000
Naive supercell factors:     5    5    5

superc: Internal auxiliary supercell:     5 x     5 x     5  =     125
superc: Number of atoms, orbitals, and projectors:   1000  13000  16000

outcell: Unit cell vectors (Ang):
        5.400013   -0.057630   -0.057630
       -0.057630    5.400008   -0.057631
       -0.057630   -0.057631    5.400003

outcell: Cell vector modules (Ang)   :    5.400628    5.400623    5.400618
outcell: Cell angles (23,13,12) (deg):     91.2162     91.2162     91.2162
outcell: Cell volume (Ang**3)        :    157.4105
New_DM. Step:     7
Re-using DM from previous geometry...
Re-using DM without extrapolation (not allowed)
Density Matrix sparsity pattern changed.

InitMesh: MESH =    36 x    36 x    36 =       46656
InitMesh: Mesh cutoff (required, used) =   100.000   122.919 Ry

siesta: iscf   Eharris(eV)      E_KS(eV)   FreeEng(eV)   dDmax  Ef(eV)
siesta:    1     -861.8975     -859.6714     -859.6715  0.0680 -5.3810
siesta:    2     -862.1107     -861.6759     -861.6760  0.0900 -5.3781
siesta:    3     -861.8222     -861.4877     -861.4877  0.0123 -5.3779
siesta:    4     -861.8209     -861.7656     -861.7657  0.0026 -5.3809
siesta:    5     -861.8208     -861.7865     -861.7865  0.0015 -5.3808
siesta:    6     -861.8207     -861.8064     -861.8065  0.0003 -5.3803

siesta: E_KS(eV) =             -861.8113

siesta: Atomic forces (eV/Ang):
----------------------------------------
   Tot    0.000559    0.000563    0.000583
----------------------------------------
   Max    0.525134
   Res    0.319630    sqrt( Sum f_i^2 / 3N )
----------------------------------------
   Max    0.525134    constrained

Stress-tensor-Voigt (kbar):      -22.83      -22.83      -22.83      -12.12      -12.12      -12.12
(Free)E + p*V (eV/cell)     -859.5687
Target enthalpy (eV/cell)     -861.8114

siesta: Stress tensor (static) (eV/Ang**3):
        -0.014247   -0.007562   -0.007563
        -0.007562   -0.014247   -0.007563
        -0.007563   -0.007563   -0.014248

siesta: Pressure (static):         22.82664402  kBar

siesta: Stress tensor (total) (eV/Ang**3):
        -0.014247   -0.007562   -0.007563
        -0.007562   -0.014247   -0.007563
        -0.007563   -0.007563   -0.014248

siesta: Pressure (total):         22.82664402  kBar

mulliken: Mulliken Atomic and Orbital Populations:

Species: Si                  
Atom  Qatom  Qorb
               3s      3s      3py     3pz     3px     3py     3pz     3px     
               3Pdxy   3Pdyz   3Pdz2   3Pdxz   3Pdx2-y2
   1  3.995   0.670   0.555   0.226   0.226   0.226   0.526   0.526   0.526
              0.122   0.122   0.073   0.122   0.073
   2  4.006   0.605   0.587   0.197   0.197   0.197   0.558   0.558   0.558
              0.131   0.131   0.080   0.131   0.080
   3  4.002   0.603   0.589   0.204   0.171   0.204   0.552   0.574   0.552
              0.129   0.132   0.084   0.132   0.078
   4  3.997   0.625   0.578   0.201   0.203   0.201   0.551   0.549   0.551
              0.128   0.128   0.078   0.128   0.079
   5  4.002   0.603   0.589   0.171   0.204   0.204   0.574   0.552   0.552
              0.132   0.132   0.080   0.129   0.082
   6  3.997   0.625   0.578   0.203   0.201   0.201   0.549   0.551   0.551
              0.128   0.128   0.079   0.128   0.078
   7  4.002   0.603   0.589   0.204   0.204   0.171   0.552   0.552   0.574
              0.132   0.129   0.080   0.132   0.082
   8  3.997   0.625   0.578   0.201   0.201   0.203   0.551   0.551   0.549
              0.128   0.128   0.079   0.128   0.078

mulliken: Qtot =       32.000

* Maximum dynamic memory allocated =   101 MB

siesta:                 ==============================
                            Begin CG move =      7
                        ==============================

outcoor: Atomic coordinates (Ang):                          
    0.09920949    0.09920941    0.09920845   1       1  Si
    1.55832830    1.55832535    1.55832164   1       2  Si
    2.82661989    2.82661500    0.20186869   1       3  Si
    4.26966067    4.26965267    1.51654903   1       4  Si
    2.82662084    0.20187039    2.82661090   1       5  Si
    4.26965764    1.51653662    4.26963912   1       6  Si
    0.20187065    2.82661577    2.82661025   1       7  Si
    1.51652399    4.26964416    4.26963765   1       8  Si
 Kpoints in:  405 . Kpoints trimmed:  365

siesta: k-grid: Number of k-points =   365
siesta: k-grid: Cutoff (effective) =    24.782 Ang
siesta: k-grid: Supercell and displacements
siesta: k-grid:    0   0   9      0.000
siesta: k-grid:    0   9   0      0.000
siesta: k-grid:    9   0   0      0.000
Naive supercell factors:     5    5    5

superc: Internal auxiliary supercell:     5 x     5 x     5  =     125
superc: Number of atoms, orbitals, and projectors:   1000  13000  16000

outcell: Unit cell vectors (Ang):
        5.506906   -0.035337   -0.035338
       -0.035337    5.506897   -0.035338
       -0.035338   -0.035338    5.506888

outcell: Cell vector modules (Ang)   :    5.507133    5.507124    5.507115
outcell: Cell angles (23,13,12) (deg):     90.7329     90.7329     90.7329
outcell: Cell volume (Ang**3)        :    166.9810
New_DM. Step:     8
Re-using DM from previous geometry...
Re-using DM without extrapolation (not allowed)
Density Matrix sparsity pattern changed.

InitMesh: MESH =    36 x    36 x    36 =       46656
InitMesh: Mesh cutoff (required, used) =   100.000   118.141 Ry

siesta: iscf   Eharris(eV)      E_KS(eV)   FreeEng(eV)   dDmax  Ef(eV)
siesta:    1     -861.4688     -859.8561     -859.8562  0.0547 -5.1688
siesta:    2     -861.7343     -861.2048     -861.2052  0.1064 -5.2514
siesta:    3     -861.3786     -860.9939     -860.9943  0.0145 -5.2041
siesta:    4     -861.3781     -861.3124     -861.3127  0.0037 -5.2064
siesta:    5     -861.3779     -861.3393     -861.3397  0.0019 -5.2061
siesta:    6     -861.3779     -861.3608     -861.3612  0.0005 -5.2055

siesta: E_KS(eV) =             -861.3671

siesta: Atomic forces (eV/Ang):
----------------------------------------
   Tot    0.004184    0.004316    0.003938
----------------------------------------
   Max    1.376618
   Res    0.962727    sqrt( Sum f_i^2 / 3N )
----------------------------------------
   Max    1.376618    constrained

Stress-tensor-Voigt (kbar):       23.80       23.80       23.81        7.91        7.90        7.91
(Free)E + p*V (eV/cell)     -863.8483
Target enthalpy (eV/cell)     -861.3674

siesta: Stress tensor (static) (eV/Ang**3):
         0.014854    0.004935    0.004938
         0.004935    0.014857    0.004928
         0.004938    0.004928    0.014861

siesta: Pressure (static):        -23.80466600  kBar

siesta: Stress tensor (total) (eV/Ang**3):
         0.014854    0.004935    0.004938
         0.004935    0.014857    0.004928
         0.004938    0.004928    0.014861

siesta: Pressure (total):        -23.80466600  kBar

mulliken: Mulliken Atomic and Orbital Populations:

Species: Si                  
Atom  Qatom  Qorb
               3s      3s      3py     3pz     3px     3py     3pz     3px     
               3Pdxy   3Pdyz   3Pdz2   3Pdxz   3Pdx2-y2
   1  4.001   0.679   0.554   0.262   0.262   0.262   0.497   0.497   0.497
              0.117   0.117   0.070   0.117   0.070
   2  4.029   0.561   0.612   0.215   0.215   0.215   0.550   0.550   0.550
              0.131   0.131   0.084   0.131   0.084
   3  3.996   0.645   0.569   0.246   0.233   0.246   0.513   0.521   0.513
              0.120   0.121   0.075   0.121   0.072
   4  3.994   0.688   0.549   0.247   0.294   0.247   0.505   0.472   0.505
              0.121   0.114   0.066   0.114   0.072
   5  3.996   0.645   0.569   0.233   0.246   0.246   0.521   0.513   0.513
              0.121   0.121   0.073   0.120   0.075
   6  3.994   0.688   0.549   0.294   0.247   0.247   0.472   0.505   0.505
              0.114   0.114   0.071   0.121   0.068
   7  3.996   0.645   0.569   0.246   0.246   0.233   0.513   0.513   0.521
              0.121   0.120   0.073   0.121   0.075
   8  3.994   0.688   0.549   0.247   0.247   0.294   0.505   0.505   0.472
              0.114   0.121   0.071   0.114   0.068

mulliken: Qtot =       32.000

* Maximum dynamic memory allocated =   101 MB

siesta:                 ==============================
                            Begin CG move =      8
                        ==============================

outcoor: Atomic coordinates (Ang):                          
    0.11217066    0.11217062    0.11217011   1       1  Si
    1.48765180    1.48765020    1.48764834   1       2  Si
    2.80733391    2.80733120    0.12896780   1       3  Si
    4.14874877    4.14874449    1.48355518   1       4  Si
    2.80733435    0.12896872    2.80732886   1       5  Si
    4.14874732    1.48354853    4.14873710   1       6  Si
    0.12896883    2.80733155    2.80732861   1       7  Si
    1.48354178    4.14874006    4.14873641   1       8  Si
 Kpoints in:  405 . Kpoints trimmed:  365

siesta: k-grid: Number of k-points =   365
siesta: k-grid: Cutoff (effective) =    24.347 Ang
siesta: k-grid: Supercell and displacements
siesta: k-grid:    0   0   9      0.000
siesta: k-grid:    0   9   0      0.000
siesta: k-grid:    9   0   0      0.000
Naive supercell factors:     5    5    5

superc: Internal auxiliary supercell:     5 x     5 x     5  =     125
superc: Number of atoms, orbitals, and projectors:   1000  13000  16000

outcell: Unit cell vectors (Ang):
        5.409983   -0.055550   -0.055551
       -0.055550    5.409978   -0.055551
       -0.055551   -0.055551    5.409973

outcell: Cell vector modules (Ang)   :    5.410554    5.410549    5.410544
outcell: Cell angles (23,13,12) (deg):     91.1705     91.1704     91.1704
outcell: Cell volume (Ang**3)        :    158.2881
New_DM. Step:     9
Re-using DM from previous geometry...
Re-using DM without extrapolation (not allowed)
Density Matrix sparsity pattern changed.

InitMesh: MESH =    36 x    36 x    36 =       46656
InitMesh: Mesh cutoff (required, used) =   100.000   122.460 Ry

siesta: iscf   Eharris(eV)      E_KS(eV)   FreeEng(eV)   dDmax  Ef(eV)
siesta:    1     -861.8903     -863.0691     -863.0695  0.0470 -5.3577
siesta:    2     -862.0714     -861.7021     -861.7021  0.0799 -5.3708
siesta:    3     -861.8266     -861.9854     -861.9855  0.0123 -5.3521
siesta:    4     -861.8257     -861.7856     -861.7856  0.0034 -5.3485
siesta:    5     -861.8256     -861.7944     -861.7944  0.0021 -5.3486
siesta:    6     -861.8256     -861.8176     -861.8176  0.0004 -5.3490

siesta: E_KS(eV) =             -861.8228

siesta: Atomic forces (eV/Ang):
----------------------------------------
   Tot    0.003415    0.003437    0.003429
----------------------------------------
   Max    0.613174
   Res    0.351852    sqrt( Sum f_i^2 / 3N )
----------------------------------------
   Max    0.613174    constrained

Stress-tensor-Voigt (kbar):      -17.29      -17.29      -17.29       -9.82       -9.82       -9.82
(Free)E + p*V (eV/cell)     -860.1150
Target enthalpy (eV/cell)     -861.8228

siesta: Stress tensor (static) (eV/Ang**3):
        -0.010789   -0.006130   -0.006130
        -0.006130   -0.010790   -0.006131
        -0.006130   -0.006131   -0.010791

siesta: Pressure (static):         17.28710451  kBar

siesta: Stress tensor (total) (eV/Ang**3):
        -0.010789   -0.006130   -0.006130
        -0.006130   -0.010790   -0.006131
        -0.006130   -0.006131   -0.010791

siesta: Pressure (total):         17.28710451  kBar

mulliken: Mulliken Atomic and Orbital Populations:

Species: Si                  
Atom  Qatom  Qorb
               3s      3s      3py     3pz     3px     3py     3pz     3px     
               3Pdxy   3Pdyz   3Pdz2   3Pdxz   3Pdx2-y2
   1  3.996   0.672   0.554   0.230   0.230   0.230   0.523   0.523   0.523
              0.121   0.121   0.073   0.121   0.073
   2  4.008   0.602   0.588   0.198   0.198   0.198   0.556   0.556   0.556
              0.130   0.130   0.080   0.130   0.080
   3  4.002   0.608   0.586   0.208   0.176   0.208   0.548   0.569   0.548
              0.128   0.131   0.083   0.131   0.078
   4  3.997   0.631   0.575   0.205   0.212   0.205   0.546   0.541   0.546
              0.128   0.126   0.077   0.126   0.078
   5  4.002   0.608   0.586   0.176   0.208   0.208   0.569   0.548   0.548
              0.131   0.131   0.079   0.128   0.081
   6  3.997   0.631   0.575   0.212   0.205   0.205   0.541   0.546   0.546
              0.126   0.126   0.078   0.128   0.077
   7  4.002   0.608   0.586   0.208   0.208   0.176   0.548   0.548   0.569
              0.131   0.128   0.079   0.131   0.081
   8  3.997   0.631   0.575   0.205   0.205   0.212   0.546   0.546   0.541
              0.126   0.128   0.078   0.126   0.077

mulliken: Qtot =       32.000

cgvc: Finished line minimization    2.  Mean atomic displacement =    0.1833

* Maximum dynamic memory allocated =   101 MB

siesta:                 ==============================
                            Begin CG move =      9
                        ==============================

outcoor: Atomic coordinates (Ang):                          
    0.13869303    0.13869821    0.13870319   1       1  Si
    1.44513137    1.44512875    1.44512804   1       2  Si
    2.90715225    2.90715795    0.14989873   1       3  Si
    4.28553416    4.28553514    1.47437844   1       4  Si
    2.90714025    0.14989588    2.90715431   1       5  Si
    4.28553649    1.47438783    4.28553855   1       6  Si
    0.14989166    2.90714288    2.90714690   1       7  Si
    1.47439502    4.28554217    4.28554012   1       8  Si
 Kpoints in:  405 . Kpoints trimmed:  365

siesta: k-grid: Number of k-points =   365
siesta: k-grid: Cutoff (effective) =    24.699 Ang
siesta: k-grid: Supercell and displacements
siesta: k-grid:    0   0   9      0.000
siesta: k-grid:    0   9   0      0.000
siesta: k-grid:    9   0   0      0.000
Naive supercell factors:     5    5    5

superc: Internal auxiliary supercell:     5 x     5 x     5  =     125
superc: Number of atoms, orbitals, and projectors:   1000  13000  16000

outcell: Unit cell vectors (Ang):
        5.488583   -0.022379   -0.022378
       -0.022379    5.488582   -0.022376
       -0.022378   -0.022376    5.488579

outcell: Cell vector modules (Ang)   :    5.488674    5.488673    5.488670
outcell: Cell angles (23,13,12) (deg):     90.4662     90.4663     90.4663
outcell: Cell volume (Ang**3)        :    165.3326
New_DM. Step:    10
Re-using DM from previous geometry...
Re-using DM without extrapolation (not allowed)
Density Matrix sparsity pattern changed.

InitMesh: MESH =    36 x    36 x    36 =       46656
InitMesh: Mesh cutoff (required, used) =   100.000   118.913 Ry

siesta: iscf   Eharris(eV)      E_KS(eV)   FreeEng(eV)   dDmax  Ef(eV)
siesta:    1     -862.0172     -860.4281     -860.4282  0.0436 -5.2954
siesta:    2     -863.0341     -861.0951     -861.0951  0.2019 -5.3873
siesta:    3     -861.7138     -861.0448     -861.0448  0.0346 -5.3149
siesta:    4     -861.7138     -861.5347     -861.5347  0.0066 -5.3179
siesta:    5     -861.7134     -861.6193     -861.6193  0.0019 -5.3173
siesta:    6     -861.7134     -861.6648     -861.6648  0.0008 -5.3169

siesta: E_KS(eV) =             -861.6955

siesta: Atomic forces (eV/Ang):
----------------------------------------
   Tot   -0.000882   -0.000872   -0.000876
----------------------------------------
   Max    1.213467
   Res    0.603579    sqrt( Sum f_i^2 / 3N )
----------------------------------------
   Max    1.213467    constrained

Stress-tensor-Voigt (kbar):       18.51       18.51       18.51      -13.05      -13.05      -13.05
(Free)E + p*V (eV/cell)     -863.6053
Target enthalpy (eV/cell)     -861.6955

siesta: Stress tensor (static) (eV/Ang**3):
         0.011551   -0.008146   -0.008145
        -0.008146    0.011551   -0.008143
        -0.008145   -0.008143    0.011551

siesta: Pressure (static):        -18.50730782  kBar

siesta: Stress tensor (total) (eV/Ang**3):
         0.011551   -0.008146   -0.008145
        -0.008146    0.011551   -0.008143
        -0.008145   -0.008143    0.011551

siesta: Pressure (total):        -18.50730782  kBar

mulliken: Mulliken Atomic and Orbital Populations:

Species: Si                  
Atom  Qatom  Qorb
               3s      3s      3py     3pz     3px     3py     3pz     3px     
               3Pdxy   3Pdyz   3Pdz2   3Pdxz   3Pdx2-y2
   1  4.016   0.562   0.610   0.197   0.197   0.197   0.562   0.562   0.562
              0.133   0.133   0.084   0.133   0.084
   2  4.000   0.673   0.554   0.251   0.251   0.251   0.508   0.508   0.508
              0.118   0.118   0.071   0.118   0.071
   3  3.997   0.682   0.550   0.240   0.288   0.240   0.513   0.480   0.513
              0.122   0.115   0.066   0.115   0.074
   4  3.997   0.645   0.568   0.238   0.229   0.238   0.520   0.526   0.520
              0.121   0.122   0.075   0.122   0.073
   5  3.997   0.682   0.550   0.288   0.240   0.240   0.480   0.513   0.513
              0.115   0.115   0.072   0.122   0.068
   6  3.997   0.645   0.568   0.229   0.238   0.238   0.526   0.520   0.520
              0.122   0.122   0.073   0.121   0.074
   7  3.997   0.682   0.550   0.240   0.240   0.288   0.513   0.513   0.480
              0.115   0.122   0.072   0.115   0.068
   8  3.997   0.645   0.568   0.238   0.238   0.229   0.520   0.520   0.526
              0.122   0.121   0.073   0.122   0.074

mulliken: Qtot =       32.000

* Maximum dynamic memory allocated =   101 MB

siesta:                 ==============================
                            Begin CG move =     10
                        ==============================

outcoor: Atomic coordinates (Ang):                          
    0.12254640    0.12254842    0.12255007   1       1  Si
    1.47130815    1.47130618    1.47130479   1       2  Si
    2.84677415    2.84677476    0.13721378   1       3  Si
    4.20295649    4.20295429    1.48008303   1       4  Si
    2.84676970    0.13721324    2.84677193   1       5  Si
    4.20295648    1.48008266    4.20295112   1       6  Si
    0.13721165    2.84676905    2.84676886   1       7  Si
    1.48008136    4.20295429    4.20295128   1       8  Si
 Kpoints in:  405 . Kpoints trimmed:  365

siesta: k-grid: Number of k-points =   365
siesta: k-grid: Cutoff (effective) =    24.487 Ang
siesta: k-grid: Supercell and displacements
siesta: k-grid:    0   0   9      0.000
siesta: k-grid:    0   9   0      0.000
siesta: k-grid:    9   0   0      0.000
Naive supercell factors:     5    5    5

superc: Internal auxiliary supercell:     5 x     5 x     5  =     125
superc: Number of atoms, orbitals, and projectors:   1000  13000  16000

outcell: Unit cell vectors (Ang):
        5.441175   -0.042387   -0.042387
       -0.042387    5.441172   -0.042386
       -0.042387   -0.042386    5.441168

outcell: Cell vector modules (Ang)   :    5.441505    5.441502    5.441498
outcell: Cell angles (23,13,12) (deg):     90.8891     90.8891     90.8891
outcell: Cell volume (Ang**3)        :    161.0637
New_DM. Step:    11
Re-using DM from previous geometry...
Re-using DM without extrapolation (not allowed)
Density Matrix sparsity pattern changed.

InitMesh: MESH =    36 x    36 x    36 =       46656
InitMesh: Mesh cutoff (required, used) =   100.000   121.027 Ry

siesta: iscf   Eharris(eV)      E_KS(eV)   FreeEng(eV)   dDmax  Ef(eV)
siesta:    1     -862.0367     -862.4791     -862.4791  0.0242 -5.3502
siesta:    2     -862.3599     -861.7282     -861.7282  0.0967 -5.3498
siesta:    3     -861.9357     -862.0554     -862.0554  0.0181 -5.3388
siesta:    4     -861.9354     -861.8917     -861.8917  0.0019 -5.3333
siesta:    5     -861.9354     -861.9012     -861.9012  0.0013 -5.3340
siesta:    6     -861.9354     -861.9246     -861.9246  0.0003 -5.3350

siesta: E_KS(eV) =             -861.9308

siesta: Atomic forces (eV/Ang):
----------------------------------------
   Tot   -0.003563   -0.003543   -0.003556
----------------------------------------
   Max    0.115309
   Res    0.060078    sqrt( Sum f_i^2 / 3N )
----------------------------------------
   Max    0.115309    constrained

Stress-tensor-Voigt (kbar):       -0.35       -0.35       -0.35      -11.60      -11.60      -11.60
(Free)E + p*V (eV/cell)     -861.8956
Target enthalpy (eV/cell)     -861.9308

siesta: Stress tensor (static) (eV/Ang**3):
        -0.000218   -0.007239   -0.007239
        -0.007239   -0.000218   -0.007238
        -0.007239   -0.007238   -0.000219

siesta: Pressure (static):          0.34988443  kBar

siesta: Stress tensor (total) (eV/Ang**3):
        -0.000218   -0.007239   -0.007239
        -0.007239   -0.000218   -0.007238
        -0.007239   -0.007238   -0.000219

siesta: Pressure (total):          0.34988443  kBar

mulliken: Mulliken Atomic and Orbital Populations:

Species: Si                  
Atom  Qatom  Qorb
               3s      3s      3py     3pz     3px     3py     3pz     3px     
               3Pdxy   3Pdyz   3Pdz2   3Pdxz   3Pdx2-y2
   1  4.001   0.630   0.575   0.217   0.217   0.217   0.539   0.539   0.539
              0.125   0.125   0.077   0.125   0.077
   2  3.999   0.634   0.573   0.216   0.216   0.216   0.538   0.538   0.538
              0.126   0.126   0.076   0.126   0.076
   3  4.000   0.640   0.570   0.219   0.223   0.219   0.536   0.533   0.536
              0.125   0.125   0.075   0.125   0.076
   4  4.000   0.638   0.571   0.222   0.221   0.222   0.534   0.534   0.534
              0.125   0.124   0.076   0.124   0.076
   5  4.000   0.640   0.570   0.223   0.219   0.219   0.533   0.536   0.536
              0.125   0.125   0.076   0.125   0.075
   6  4.000   0.638   0.571   0.221   0.222   0.222   0.534   0.534   0.534
              0.124   0.124   0.076   0.125   0.076
   7  4.000   0.640   0.570   0.219   0.219   0.223   0.536   0.536   0.533
              0.125   0.125   0.076   0.125   0.075
   8  4.000   0.638   0.571   0.222   0.222   0.221   0.534   0.534   0.534
              0.124   0.125   0.076   0.124   0.076

mulliken: Qtot =       32.000

cgvc: Finished line minimization    3.  Mean atomic displacement =    0.0728

* Maximum dynamic memory allocated =   101 MB

siesta:                 ==============================
                            Begin CG move =     11
                        ==============================

outcoor: Atomic coordinates (Ang):                          
    0.13656492    0.13656263    0.13656029   1       1  Si
    1.51293235    1.51293289    1.51292414   1       2  Si
    2.89119602    2.89119269    0.16272651   1       3  Si
    4.25626016    4.25626680    1.56379723   1       4  Si
    2.89120154    0.16273048    2.89119419   1       5  Si
    4.25625366    1.56378782    4.25626169   1       6  Si
    0.16273503    2.89119782    2.89119736   1       7  Si
    1.56377828    4.25625055    4.25625454   1       8  Si
 Kpoints in:  405 . Kpoints trimmed:  365

siesta: k-grid: Number of k-points =   365
siesta: k-grid: Cutoff (effective) =    24.524 Ang
siesta: k-grid: Supercell and displacements
siesta: k-grid:    0   0   9      0.000
siesta: k-grid:    0   9   0      0.000
siesta: k-grid:    9   0   0      0.000
Naive supercell factors:     5    5    5

superc: Internal auxiliary supercell:     5 x     5 x     5  =     125
superc: Number of atoms, orbitals, and projectors:   1000  13000  16000

outcell: Unit cell vectors (Ang):
        5.449772    0.009185    0.009183
        0.009185    5.449770    0.009181
        0.009183    0.009181    5.449769

outcell: Cell vector modules (Ang)   :    5.449787    5.449785    5.449785
outcell: Cell angles (23,13,12) (deg):     89.8068     89.8067     89.8067
outcell: Cell volume (Ang**3)        :    161.8568
New_DM. Step:    12
Re-using DM from previous geometry...
Re-using DM without extrapolation (not allowed)
Density Matrix sparsity pattern changed.

InitMesh: MESH =    36 x    36 x    36 =       46656
InitMesh: Mesh cutoff (required, used) =   100.000   120.603 Ry

siesta: iscf   Eharris(eV)      E_KS(eV)   FreeEng(eV)   dDmax  Ef(eV)
siesta:    1     -861.9521     -861.7740     -861.7740  0.0199 -5.3284
siesta:    2     -861.9830     -861.9216     -861.9216  0.0253 -5.3313
siesta:    3     -861.9420     -861.9079     -861.9079  0.0039 -5.3316
siesta:    4     -861.9418     -861.9342     -861.9342  0.0003 -5.3319

siesta: E_KS(eV) =             -861.9366

siesta: Atomic forces (eV/Ang):
----------------------------------------
   Tot    0.004104    0.004231    0.004177
----------------------------------------
   Max    0.425117
   Res    0.221249    sqrt( Sum f_i^2 / 3N )
----------------------------------------
   Max    0.425117    constrained

Stress-tensor-Voigt (kbar):        3.49        3.49        3.49        7.28        7.28        7.28
(Free)E + p*V (eV/cell)     -862.2892
Target enthalpy (eV/cell)     -861.9366

siesta: Stress tensor (static) (eV/Ang**3):
         0.002178    0.004544    0.004544
         0.004544    0.002178    0.004541
         0.004544    0.004541    0.002179

siesta: Pressure (static):         -3.49014309  kBar

siesta: Stress tensor (total) (eV/Ang**3):
         0.002178    0.004544    0.004544
         0.004544    0.002178    0.004541
         0.004544    0.004541    0.002179

siesta: Pressure (total):         -3.49014309  kBar

mulliken: Mulliken Atomic and Orbital Populations:

Species: Si                  
Atom  Qatom  Qorb
               3s      3s      3py     3pz     3px     3py     3pz     3px     
               3Pdxy   3Pdyz   3Pdz2   3Pdxz   3Pdx2-y2
   1  3.999   0.650   0.564   0.228   0.228   0.228   0.528   0.528   0.528
              0.123   0.123   0.074   0.123   0.074
   2  3.999   0.660   0.559   0.233   0.233   0.233   0.523   0.523   0.523
              0.122   0.122   0.073   0.122   0.073
   3  4.000   0.637   0.570   0.224   0.220   0.224   0.533   0.536   0.533
              0.124   0.124   0.076   0.124   0.075
   4  4.000   0.635   0.572   0.224   0.210   0.224   0.533   0.542   0.533
              0.124   0.125   0.077   0.125   0.075
   5  4.000   0.637   0.570   0.220   0.224   0.224   0.536   0.533   0.533
              0.124   0.124   0.075   0.124   0.076
   6  4.000   0.635   0.572   0.210   0.224   0.224   0.542   0.533   0.533
              0.125   0.125   0.075   0.124   0.076
   7  4.000   0.637   0.570   0.224   0.224   0.220   0.533   0.533   0.536
              0.124   0.124   0.075   0.124   0.076
   8  4.000   0.635   0.572   0.224   0.224   0.210   0.533   0.533   0.542
              0.125   0.124   0.075   0.125   0.076

mulliken: Qtot =       32.000

* Maximum dynamic memory allocated =   101 MB

siesta:                 ==============================
                            Begin CG move =     12
                        ==============================

outcoor: Atomic coordinates (Ang):                          
    0.12966111    0.12966091    0.12966052   1       1  Si
    1.49255122    1.49255054    1.49254537   1       2  Si
    2.86954338    2.86954196    0.15022810   1       3  Si
    4.23025277    4.23025512    1.52295813   1       4  Si
    2.86954402    0.15022982    2.86954131   1       5  Si
    4.23024947    1.52295316    4.23025099   1       6  Si
    0.15023136    2.86954177    2.86954144   1       7  Si
    1.52294766    4.23024685    4.23024743   1       8  Si
 Kpoints in:  405 . Kpoints trimmed:  365

siesta: k-grid: Number of k-points =   365
siesta: k-grid: Cutoff (effective) =    24.505 Ang
siesta: k-grid: Supercell and displacements
siesta: k-grid:    0   0   9      0.000
siesta: k-grid:    0   9   0      0.000
siesta: k-grid:    9   0   0      0.000
Naive supercell factors:     5    5    5

superc: Internal auxiliary supercell:     5 x     5 x     5  =     125
superc: Number of atoms, orbitals, and projectors:   1000  13000  16000

outcell: Unit cell vectors (Ang):
        5.445574   -0.015998   -0.015998
       -0.015998    5.445571   -0.015999
       -0.015998   -0.015999    5.445569

outcell: Cell vector modules (Ang)   :    5.445621    5.445618    5.445616
outcell: Cell angles (23,13,12) (deg):     90.3362     90.3362     90.3361
outcell: Cell volume (Ang**3)        :    161.4801
New_DM. Step:    13
Re-using DM from previous geometry...
Re-using DM without extrapolation (not allowed)
Density Matrix sparsity pattern changed.

InitMesh: MESH =    36 x    36 x    36 =       46656
InitMesh: Mesh cutoff (required, used) =   100.000   120.793 Ry

siesta: iscf   Eharris(eV)      E_KS(eV)   FreeEng(eV)   dDmax  Ef(eV)
siesta:    1     -861.9605     -862.0121     -862.0121  0.0071 -5.3297
siesta:    2     -861.9677     -861.9534     -861.9534  0.0126 -5.3275
siesta:    3     -861.9581     -861.9640     -861.9640  0.0018 -5.3282
siesta:    4     -861.9581     -861.9564     -861.9564  0.0002 -5.3280

siesta: E_KS(eV) =             -861.9569

siesta: Atomic forces (eV/Ang):
----------------------------------------
   Tot   -0.004812   -0.004822   -0.004827
----------------------------------------
   Max    0.191511
   Res    0.108883    sqrt( Sum f_i^2 / 3N )
----------------------------------------
   Max    0.191511    constrained

Stress-tensor-Voigt (kbar):        1.99        1.99        1.99       -1.68       -1.68       -1.68
(Free)E + p*V (eV/cell)     -862.1577
Target enthalpy (eV/cell)     -861.9569

siesta: Stress tensor (static) (eV/Ang**3):
         0.001244   -0.001046   -0.001046
        -0.001046    0.001244   -0.001048
        -0.001046   -0.001048    0.001243

siesta: Pressure (static):         -1.99312105  kBar

siesta: Stress tensor (total) (eV/Ang**3):
         0.001244   -0.001046   -0.001046
        -0.001046    0.001244   -0.001048
        -0.001046   -0.001048    0.001243

siesta: Pressure (total):         -1.99312105  kBar

mulliken: Mulliken Atomic and Orbital Populations:

Species: Si                  
Atom  Qatom  Qorb
               3s      3s      3py     3pz     3px     3py     3pz     3px     
               3Pdxy   3Pdyz   3Pdz2   3Pdxz   3Pdx2-y2
   1  4.000   0.639   0.570   0.222   0.222   0.222   0.533   0.533   0.533
              0.124   0.124   0.075   0.124   0.075
   2  4.000   0.648   0.565   0.225   0.225   0.225   0.531   0.531   0.531
              0.124   0.124   0.075   0.124   0.075
   3  4.000   0.639   0.570   0.221   0.222   0.221   0.534   0.534   0.534
              0.124   0.124   0.075   0.124   0.075
   4  4.000   0.637   0.571   0.222   0.216   0.222   0.534   0.538   0.534
              0.124   0.125   0.076   0.125   0.075
   5  4.000   0.639   0.570   0.222   0.221   0.221   0.534   0.534   0.534
              0.124   0.124   0.075   0.124   0.075
   6  4.000   0.637   0.571   0.216   0.222   0.222   0.538   0.534   0.534
              0.125   0.125   0.076   0.124   0.076
   7  4.000   0.639   0.570   0.221   0.221   0.222   0.534   0.534   0.534
              0.124   0.124   0.075   0.124   0.075
   8  4.000   0.637   0.571   0.222   0.222   0.216   0.534   0.534   0.538
              0.125   0.124   0.076   0.125   0.076

mulliken: Qtot =       32.000

cgvc: Finished line minimization    4.  Mean atomic displacement =    0.0372

* Maximum dynamic memory allocated =   101 MB

siesta:                 ==============================
                            Begin CG move =     13
                        ==============================

outcoor: Atomic coordinates (Ang):                          
    0.14428687    0.14428829    0.14428809   1       1  Si
    1.50974734    1.50974706    1.50974337   1       2  Si
    2.88895332    2.88895596    0.17421604   1       3  Si
    4.24578625    4.24578645    1.54497418   1       4  Si
    2.88895197    0.17421740    2.88895544   1       5  Si
    4.24578225    1.54497193    4.24578470   1       6  Si
    0.17421455    2.88895240    2.88895446   1       7  Si
    1.54496875    4.24578084    4.24578279   1       8  Si
 Kpoints in:  405 . Kpoints trimmed:  365

siesta: k-grid: Number of k-points =   365
siesta: k-grid: Cutoff (effective) =    24.509 Ang
siesta: k-grid: Supercell and displacements
siesta: k-grid:    0   9   0      0.000
siesta: k-grid:    0   0   9      0.000
siesta: k-grid:    9   0   0      0.000
Naive supercell factors:     5    5    5

superc: Internal auxiliary supercell:     5 x     5 x     5  =     125
superc: Number of atoms, orbitals, and projectors:   1000  13000  16000

outcell: Unit cell vectors (Ang):
        5.446486    0.006501    0.006500
        0.006501    5.446485    0.006500
        0.006500    0.006500    5.446485

outcell: Cell vector modules (Ang)   :    5.446493    5.446492    5.446493
outcell: Cell angles (23,13,12) (deg):     89.8632     89.8632     89.8631
outcell: Cell volume (Ang**3)        :    161.5649
New_DM. Step:    14
Re-using DM from previous geometry...
Re-using DM without extrapolation (not allowed)
Density Matrix sparsity pattern changed.

InitMesh: MESH =    36 x    36 x    36 =       46656
InitMesh: Mesh cutoff (required, used) =   100.000   120.747 Ry

siesta: iscf   Eharris(eV)      E_KS(eV)   FreeEng(eV)   dDmax  Ef(eV)
siesta:    1     -861.9683     -861.9415     -861.9415  0.0194 -5.3609
siesta:    2     -861.9688     -861.9668     -861.9668  0.0050 -5.3582
siesta:    3     -861.9676     -861.9666     -861.9666  0.0005 -5.3588

siesta: E_KS(eV) =             -861.9672

siesta: Atomic forces (eV/Ang):
----------------------------------------
   Tot    0.000813    0.000812    0.000798
----------------------------------------
   Max    0.089270
   Res    0.055672    sqrt( Sum f_i^2 / 3N )
----------------------------------------
   Max    0.089270    constrained

Stress-tensor-Voigt (kbar):        2.56        2.56        2.56        1.21        1.21        1.21
(Free)E + p*V (eV/cell)     -862.2249
Target enthalpy (eV/cell)     -861.9672

siesta: Stress tensor (static) (eV/Ang**3):
         0.001595    0.000753    0.000753
         0.000753    0.001595    0.000753
         0.000753    0.000753    0.001595

siesta: Pressure (static):         -2.55534543  kBar

siesta: Stress tensor (total) (eV/Ang**3):
         0.001595    0.000753    0.000753
         0.000753    0.001595    0.000753
         0.000753    0.000753    0.001595

siesta: Pressure (total):         -2.55534543  kBar

mulliken: Mulliken Atomic and Orbital Populations:

Species: Si                  
Atom  Qatom  Qorb
               3s      3s      3py     3pz     3px     3py     3pz     3px     
               3Pdxy   3Pdyz   3Pdz2   3Pdxz   3Pdx2-y2
   1  3.999   0.646   0.566   0.225   0.225   0.225   0.531   0.531   0.531
              0.124   0.124   0.075   0.124   0.075
   2  4.000   0.648   0.565   0.226   0.226   0.226   0.530   0.530   0.530
              0.123   0.123   0.074   0.123   0.074
   3  4.000   0.638   0.570   0.223   0.218   0.223   0.534   0.537   0.534
              0.124   0.125   0.076   0.125   0.075
   4  4.000   0.638   0.570   0.222   0.217   0.222   0.534   0.538   0.534
              0.124   0.125   0.076   0.125   0.075
   5  4.000   0.638   0.570   0.218   0.223   0.223   0.537   0.534   0.534
              0.125   0.125   0.075   0.124   0.076
   6  4.000   0.638   0.570   0.217   0.222   0.222   0.538   0.534   0.534
              0.125   0.125   0.075   0.124   0.076
   7  4.000   0.638   0.570   0.223   0.223   0.218   0.534   0.534   0.537
              0.125   0.124   0.075   0.125   0.076
   8  4.000   0.638   0.570   0.222   0.222   0.217   0.534   0.534   0.538
              0.125   0.124   0.075   0.125   0.076

mulliken: Qtot =       32.000

* Maximum dynamic memory allocated =   101 MB

siesta:                 ==============================
                            Begin CG move =     14
                        ==============================

outcoor: Atomic coordinates (Ang):                          
    0.14363310    0.14363444    0.14363424   1       1  Si
    1.50898273    1.50898242    1.50897867   1       2  Si
    2.88809092    2.88809338    0.17314946   1       3  Si
    4.24510102    4.24510131    1.54400060   1       4  Si
    2.88808965    0.17315084    2.88809284   1       5  Si
    4.24509704    1.54399824    4.24509945   1       6  Si
    0.17314819    2.88808997    2.88809191   1       7  Si
    1.54399495    4.24509558    4.24509747   1       8  Si
 Kpoints in:  405 . Kpoints trimmed:  365

siesta: k-grid: Number of k-points =   365
siesta: k-grid: Cutoff (effective) =    24.509 Ang
siesta: k-grid: Supercell and displacements
siesta: k-grid:    0   9   0      0.000
siesta: k-grid:    0   0   9      0.000
siesta: k-grid:    9   0   0      0.000
Naive supercell factors:     5    5    5

superc: Internal auxiliary supercell:     5 x     5 x     5  =     125
superc: Number of atoms, orbitals, and projectors:   1000  13000  16000

outcell: Unit cell vectors (Ang):
        5.446445    0.005503    0.005502
        0.005503    5.446444    0.005502
        0.005502    0.005502    5.446444

outcell: Cell vector modules (Ang)   :    5.446451    5.446450    5.446450
outcell: Cell angles (23,13,12) (deg):     89.8842     89.8842     89.8842
outcell: Cell volume (Ang**3)        :    161.5615
New_DM. Step:    15
Re-using DM from previous geometry...
Re-using DM without extrapolation (not allowed)
Density Matrix sparsity pattern changed.

InitMesh: MESH =    36 x    36 x    36 =       46656
InitMesh: Mesh cutoff (required, used) =   100.000   120.749 Ry

siesta: iscf   Eharris(eV)      E_KS(eV)   FreeEng(eV)   dDmax  Ef(eV)
siesta:    1     -861.9677     -861.9678     -861.9678  0.0003 -5.3601

siesta: E_KS(eV) =             -861.9676

siesta: Atomic forces (eV/Ang):
----------------------------------------
   Tot    0.000502    0.000875    0.000858
----------------------------------------
   Max    0.089616
[...]
          8.61   8.71   9.58   9.60   9.81  10.35  14.46  14.85  15.05  15.14
         15.25  15.27  15.95  15.97  16.54  16.86  16.88  16.92  17.35  17.36
         18.45  18.45  18.62  19.21  19.22  19.71  19.82  20.81  21.13  22.29
         27.06  27.09  27.14  28.44  30.52  30.54  32.04  32.36  39.37  39.40
         44.35  47.24  56.18  56.48  56.74  61.67  71.72  71.77  72.47  77.35
         81.32  81.40  86.27  97.50
 350  1 -16.15 -15.73 -15.05 -14.88 -12.48 -12.29 -11.52 -11.01  -9.08  -8.89
         -8.11  -7.63  -7.56  -7.54  -7.29  -6.78  -3.36  -3.33  -3.29  -2.80
         -2.42  -2.28  -2.05  -1.65  -1.55  -0.91  -0.27  -0.16   0.18   0.81
          0.99   1.81   2.33   2.72   3.11   3.95   4.19   4.54   4.70   4.77
          4.79   5.91   6.80   7.40   7.45   8.18   8.66   8.86   9.01   9.03
          9.08   9.55  10.21  10.97  11.03  11.45  13.38  13.61  13.73  13.95
         14.31  14.81  15.14  15.39  15.82  16.40  16.50  16.58  17.60  17.79
         17.98  18.18  18.27  19.18  19.52  19.94  20.71  21.79  22.00  22.71
         25.65  25.86  26.54  27.95  28.36  30.56  34.37  35.68  37.49  37.51
         42.73  47.52  55.73  56.30  57.12  59.99  67.66  71.19  71.91  78.17
         84.19  84.54  86.83  96.22
 351  1 -16.28 -15.84 -15.06 -14.78 -12.26 -11.93 -11.00 -10.42  -9.72  -9.44
         -8.69  -8.23  -7.79  -7.69  -7.30  -6.68  -3.50  -2.89  -2.79  -2.58
         -2.26  -2.11  -2.03  -1.14  -0.88  -0.80  -0.10  -0.08  -0.06   0.58
          0.84   1.30   1.77   1.80   2.93   3.03   3.18   3.66   5.02   5.04
          5.31   6.31   7.87   8.07   8.27   8.92   8.93   9.40   9.44   9.62
          9.78  10.57  11.21  11.57  11.69  11.93  12.53  12.72  12.98  13.01
         13.64  14.16  14.30  14.45  15.51  15.64  15.87  15.94  17.46  17.65
         18.06  18.59  18.71  19.68  20.00  20.86  21.32  22.60  22.69  23.19
         24.37  24.97  25.90  26.29  27.52  29.53  38.71  39.32  41.61  42.94
         44.82  55.39  55.67  56.04  58.67  59.47  66.15  68.42  71.51  77.49
         79.41  84.85  87.18  93.85
 352  1 -16.32 -15.87 -15.07 -14.74 -12.12 -11.74 -10.72 -10.08 -10.00  -9.71
         -9.00  -8.60  -7.85  -7.73  -7.30  -6.65  -3.55  -2.62  -2.57  -2.50
         -2.27  -2.06  -1.60  -1.27  -0.81  -0.72  -0.51  -0.32   0.33   0.57
          1.21   1.37   1.40   1.77   2.42   2.54   3.01   3.05   5.16   5.21
          5.60   6.45   7.75   8.34   8.88   9.40   9.56   9.58   9.97  10.35
         10.43  10.46  11.02  11.12  11.34  12.00  12.48  12.67  12.73  13.38
         13.44  13.71  13.91  14.11  15.06  15.41  15.42  15.55  17.34  17.61
         18.06  18.90  19.10  19.79  20.57  21.34  21.53  22.78  23.10  23.46
         23.76  24.62  24.86  26.17  27.24  29.06  40.43  42.67  45.64  46.35
         50.08  53.68  56.18  56.53  59.09  65.72  65.98  68.01  74.12  74.52
         74.95  77.48  84.56  85.17
 353  1 -16.28 -15.84 -15.06 -14.77 -12.26 -11.93 -11.00 -10.42  -9.72  -9.44
         -8.69  -8.22  -7.79  -7.69  -7.30  -6.68  -3.50  -2.88  -2.79  -2.58
         -2.26  -2.10  -2.04  -1.13  -0.89  -0.82  -0.11  -0.10  -0.06   0.57
          0.83   1.31   1.77   1.80   2.95   3.03   3.19   3.67   5.04   5.04
          5.32   6.31   7.86   8.06   8.29   8.92   8.94   9.42   9.43   9.61
          9.79  10.57  11.22  11.57  11.67  11.91  12.49  12.72  12.98  13.01
         13.61  14.16  14.30  14.46  15.52  15.66  15.88  15.97  17.47  17.65
         18.06  18.59  18.71  19.69  20.01  20.87  21.32  22.61  22.70  23.17
         24.36  24.97  25.90  26.30  27.53  29.52  38.85  39.33  41.70  42.97
         44.90  55.28  55.72  56.09  58.66  59.39  66.22  68.52  71.53  77.48
         79.60  84.88  87.23  93.81
 354  1 -16.15 -15.73 -15.05 -14.87 -12.48 -12.29 -11.52 -11.02  -9.08  -8.88
         -8.10  -7.63  -7.56  -7.53  -7.29  -6.78  -3.37  -3.32  -3.28  -2.79
         -2.42  -2.28  -2.06  -1.66  -1.55  -0.91  -0.27  -0.17   0.17   0.80
          0.97   1.80   2.35   2.72   3.11   3.96   4.20   4.55   4.72   4.78
          4.80   5.91   6.82   7.40   7.46   8.17   8.65   8.88   9.01   9.04
          9.06   9.56  10.19  10.95  11.00  11.44  13.36  13.60  13.71  13.95
         14.31  14.81  15.14  15.40  15.82  16.40  16.53  16.61  17.62  17.79
         17.99  18.18  18.27  19.19  19.54  19.95  20.71  21.81  22.01  22.69
         25.63  25.87  26.56  27.98  28.37  30.56  34.50  35.69  37.49  37.58
         42.74  47.51  55.89  56.33  57.11  60.00  67.76  71.33  71.82  78.17
         84.28  84.70  86.88  96.14
 355  1 -15.94 -15.56 -15.09 -15.07 -12.55 -12.55 -12.02 -11.59  -8.34  -8.33
         -7.66  -7.36  -7.36  -7.23  -6.96  -6.95  -3.77  -3.48  -3.26  -3.26
         -2.28  -2.26  -2.26  -2.21  -1.85  -1.47  -1.09  -1.07   1.24   1.86
          2.03   2.03   3.29   3.30   3.69   3.85   4.28   4.69   5.12   5.12
          5.19   5.53   6.17   6.18   6.68   8.00   8.02   8.13   8.58   8.60
          8.61   8.69   9.57   9.57   9.79  10.33  14.46  14.84  15.06  15.12
         15.26  15.26  15.96  15.97  16.54  16.88  16.89  16.94  17.36  17.38
         18.46  18.46  18.62  19.21  19.22  19.73  19.82  20.82  21.14  22.26
         27.07  27.07  27.18  28.50  30.53  30.55  32.08  32.39  39.38  39.40
         44.35  47.23  56.35  56.46  56.85  61.84  71.86  71.88  72.30  77.40
         81.31  81.32  86.40  97.41
 356  1 -15.67 -15.37 -15.36 -15.19 -12.59 -12.40 -12.39 -12.06  -7.93  -7.67
         -7.67  -7.23  -7.10  -7.06  -7.05  -6.79  -3.85  -3.51  -3.51  -3.49
         -2.36  -2.36  -2.17  -2.12  -2.12  -1.73  -1.72  -1.71   2.39   2.39
          2.81   2.90   3.23   3.67   3.85   3.86   4.11   4.35   4.66   4.66
          5.41   6.44   6.45   6.69   6.70   6.78   7.38   7.63   8.04   8.29
          8.30   8.63   8.64   8.94   9.13   9.14  15.23  15.33  15.34  16.08
         16.21  16.22  16.25  16.55  16.62  16.64  17.04  17.06  17.76  18.65
         18.66  18.86  19.13  19.14  19.43  19.61  20.04  20.05  20.60  21.15
         28.53  28.54  28.67  29.32  29.80  30.66  30.67  31.34  47.32  49.92
         49.97  54.24  59.08  59.15  61.97  63.42  67.31  76.49  76.53  81.30
         84.52  84.56  86.03  95.17
 357  1 -15.47 -15.30 -15.30 -15.29 -12.64 -12.64 -12.64 -12.45  -7.20  -7.19
         -7.19  -6.98  -6.97  -6.97  -6.87  -6.87  -4.19  -3.92  -3.92  -3.91
         -2.28  -2.28  -2.28  -2.20  -2.19  -2.06  -2.06  -2.06   3.04   3.05
          3.05   3.15   4.35   4.36   4.36   4.52   4.54   5.34   5.38   5.39
          5.41   5.97   5.97   5.98   6.12   6.13   6.13   7.02   7.04   7.24
          7.24   7.26   8.44   8.46   8.47   8.60  16.25  16.35  16.38  16.39
         17.04  17.06  17.22  17.22  17.23  17.49  17.49  17.50  19.02  19.06
         19.08  19.28  19.29  19.30  19.50  19.51  19.52  19.83  19.83  21.46
         29.15  29.16  29.19  29.78  29.82  29.84  29.87  29.89  61.14  61.16
         61.32  63.14  67.47  67.63  67.91  71.30  71.33  71.41  75.23  75.57
         97.48  97.51  97.56 107.91
 358  1 -15.67 -15.37 -15.36 -15.20 -12.59 -12.40 -12.39 -12.06  -7.92  -7.68
         -7.67  -7.24  -7.09  -7.07  -7.05  -6.80  -3.86  -3.51  -3.51  -3.48
         -2.36  -2.35  -2.16  -2.13  -2.12  -1.73  -1.72  -1.72   2.40   2.42
          2.81   2.91   3.23   3.67   3.85   3.85   4.10   4.34   4.64   4.64
          5.39   6.43   6.44   6.70   6.70   6.78   7.38   7.62   8.06   8.28
          8.30   8.62   8.65   8.97   9.16   9.16  15.25  15.34  15.34  16.05
         16.22  16.24  16.25  16.54  16.60  16.65  17.03  17.03  17.73  18.65
         18.65  18.87  19.14  19.14  19.42  19.60  20.04  20.04  20.59  21.17
         28.52  28.53  28.66  29.29  29.81  30.63  30.64  31.34  47.37  49.91
         49.99  54.19  58.86  58.94  61.92  63.50  67.19  76.66  76.71  81.25
         84.38  84.38  85.84  95.22
 359  1 -15.84 -15.47 -15.46 -15.17 -12.30 -11.97 -11.97 -11.54  -8.74  -8.41
         -8.40  -7.96  -7.20  -7.13  -7.11  -6.76  -3.40  -3.31  -3.09  -3.08
         -2.28  -2.28  -1.95  -1.86  -1.53  -1.24  -1.12  -1.12   1.40   1.41
          1.90   2.10   2.60   2.89   2.95   3.29   3.29   4.00   4.00   4.49
          5.88   7.27   7.27   7.45   7.45   7.81   7.83   8.65   9.08   9.08
          9.28   9.32   9.44  10.28  10.44  10.45  13.68  13.95  13.95  14.49
         15.12  15.15  15.55  15.61  15.85  15.97  16.24  16.25  18.13  18.58
         18.78  18.79  19.40  19.40  19.70  20.04  20.79  20.79  21.17  21.29
         27.87  27.88  28.04  28.79  28.99  32.44  32.45  34.83  43.03  45.21
         45.26  51.17  56.24  56.31  58.17  61.69  62.61  77.61  77.64  80.60
         80.89  80.91  86.66  91.38
 360  1 -15.95 -15.54 -15.53 -15.18 -11.91 -11.48 -11.48 -10.98  -9.46  -9.11
         -9.10  -8.69  -7.27  -7.17  -7.16  -6.74  -3.47  -3.01  -2.97  -2.96
         -1.81  -1.81  -1.50  -1.43  -0.66  -0.61  -0.41  -0.41   0.45   0.46
          0.89   1.23   1.60   1.90   2.30   2.31   2.90   4.04   4.04   4.81
          6.32   7.66   7.66   8.11   8.41   8.41   8.87   9.02   9.89   9.89
          9.96  10.25  10.95  11.67  11.69  11.75  12.83  12.87  12.87  12.98
         14.13  14.15  14.21  14.66  15.00  15.28  15.28  15.36  18.09  18.85
         18.86  19.33  20.06  20.07  20.09  20.72  21.47  21.47  21.61  21.76
         27.00  27.02  27.02  27.42  28.21  34.64  34.65  42.05  44.16  47.01
         47.03  52.50  55.69  55.71  60.11  61.27  61.34  71.31  71.33  81.09
         81.12  81.45  82.22  83.32
 361  1 -15.98 -15.57 -15.56 -15.18 -11.68 -11.21 -11.21 -10.66  -9.80  -9.45
         -9.45  -9.07  -7.29  -7.19  -7.18  -6.74  -3.51  -2.97  -2.96  -2.95
         -1.40  -1.40  -1.30  -0.92  -0.32  -0.20  -0.19   0.12   0.13   0.13
          0.25   0.83   0.85   1.42   1.77   1.78   2.89   4.08   4.08   4.96
          6.48   7.79   7.80   8.23   8.83   8.83   9.02   9.53  10.16  10.66
         10.66  11.20  11.45  11.46  11.74  12.29  12.53  12.77  12.98  13.24
         13.25  13.43  13.43  13.99  14.43  14.62  14.63  15.08  18.06  18.91
         18.92  19.79  20.27  20.39  20.40  21.04  21.78  21.79  21.90  21.92
         26.20  26.58  26.59  27.13  27.77  35.67  35.69  45.15  49.74  51.68
         51.75  53.56  54.14  54.15  61.16  61.39  62.17  65.53  65.66  70.21
         80.50  80.53  81.85  82.41
 362  1 -15.95 -15.54 -15.53 -15.17 -11.91 -11.48 -11.48 -10.98  -9.46  -9.10
         -9.10  -8.69  -7.27  -7.17  -7.16  -6.74  -3.47  -3.01  -2.97  -2.96
         -1.80  -1.80  -1.50  -1.42  -0.67  -0.63  -0.42  -0.42   0.44   0.44
          0.88   1.23   1.61   1.91   2.32   2.32   2.90   4.04   4.04   4.81
          6.33   7.66   7.66   8.11   8.40   8.41   8.87   9.01   9.91   9.91
          9.94  10.26  10.97  11.67  11.67  11.73  12.82  12.84  12.85  12.99
         14.14  14.14  14.19  14.66  15.01  15.29  15.31  15.37  18.08  18.85
         18.86  19.34  20.06  20.07  20.11  20.73  21.48  21.48  21.59  21.76
         27.01  27.02  27.02  27.42  28.21  34.65  34.67  42.08  44.15  47.03
         47.07  52.51  55.74  55.75  60.05  61.34  61.36  71.47  71.61  81.07
         81.08  81.47  82.22  83.29
 363  1 -15.84 -15.47 -15.46 -15.16 -12.30 -11.97 -11.97 -11.54  -8.75  -8.40
         -8.40  -7.95  -7.20  -7.13  -7.11  -6.75  -3.40  -3.30  -3.09  -3.07
         -2.28  -2.28  -1.94  -1.86  -1.54  -1.24  -1.12  -1.12   1.39   1.39
          1.89   2.10   2.61   2.90   2.94   3.30   3.31   4.00   4.00   4.51
          5.90   7.27   7.27   7.45   7.46   7.81   7.83   8.63   9.10   9.10
          9.30   9.34   9.41  10.26  10.42  10.42  13.67  13.94  13.94  14.51
         15.13  15.13  15.53  15.61  15.86  15.99  16.26  16.28  18.14  18.58
         18.78  18.79  19.40  19.40  19.72  20.05  20.79  20.80  21.15  21.30
         27.88  27.88  28.05  28.79  28.99  32.47  32.49  34.84  43.02  45.24
         45.27  51.15  56.39  56.45  58.14  61.67  62.72  77.83  77.87  80.63
         80.81  80.86  86.60  91.48
 364  1 -15.67 -15.37 -15.36 -15.19 -12.59 -12.40 -12.39 -12.06  -7.93  -7.67
         -7.67  -7.23  -7.10  -7.06  -7.05  -6.79  -3.85  -3.51  -3.51  -3.49
         -2.36  -2.36  -2.17  -2.12  -2.12  -1.73  -1.72  -1.71   2.39   2.39
          2.81   2.90   3.23   3.67   3.85   3.86   4.11   4.35   4.65   4.66
          5.41   6.44   6.45   6.69   6.70   6.78   7.38   7.63   8.04   8.29
          8.30   8.63   8.64   8.94   9.13   9.14  15.23  15.33  15.34  16.08
         16.21  16.22  16.25  16.55  16.62  16.64  17.04  17.06  17.76  18.65
         18.66  18.86  19.13  19.14  19.43  19.61  20.04  20.05  20.60  21.15
         28.53  28.54  28.67  29.32  29.80  30.66  30.67  31.34  47.32  49.92
         49.97  54.24  59.08  59.15  61.97  63.42  67.31  76.49  76.53  81.30
         84.52  84.56  86.03  95.17
 365  1 -15.48 -15.30 -15.29 -15.29 -12.64 -12.64 -12.64 -12.44  -7.21  -7.18
         -7.18  -6.98  -6.98  -6.98  -6.87  -6.87  -4.17  -3.93  -3.92  -3.92
         -2.29  -2.29  -2.28  -2.19  -2.19  -2.06  -2.06  -2.04   3.03   3.03
          3.05   3.16   4.34   4.34   4.36   4.53   4.53   5.37   5.40   5.40
          5.40   5.99   5.99   6.00   6.13   6.14   6.14   7.03   7.03   7.22
          7.23   7.23   8.46   8.46   8.46   8.58  16.22  16.38  16.38  16.38
         17.06  17.06  17.20  17.20  17.21  17.50  17.50  17.52  19.08  19.09
         19.09  19.28  19.28  19.30  19.48  19.48  19.52  19.83  19.83  21.39
         29.20  29.20  29.21  29.79  29.79  29.80  29.88  29.88  61.10  61.21
         61.21  63.14  67.75  67.75  67.75  71.14  71.21  71.21  75.76  75.76
         97.46  97.67  97.67 108.23
siesta: Fermi energy =      -5.369185 eV

siesta: Program's energy decomposition (eV):
siesta: Ebs     =      -344.346312
siesta: Eions   =      1510.441798
siesta: Ena     =       465.210297
siesta: Ekin    =       325.279115
siesta: Enl     =       111.029681
siesta: DEna    =         5.071584
siesta: DUscf   =         1.529986
siesta: DUext   =         0.000000
siesta: Exc     =      -259.650639
siesta: eta*DQ  =         0.000000
siesta: Emadel  =         0.000000
siesta: Emeta   =         0.000000
siesta: Emolmec =         0.000000
siesta: Ekinion =         0.000000
siesta: Eharris =      -861.971478
siesta: Etot    =      -861.971775
siesta: FreeEng =      -861.971775

siesta: Final energy (eV):
siesta:  Band Struct. =    -344.346312
siesta:       Kinetic =     325.279115
siesta:       Hartree =      57.791525
siesta:    Ext. field =       0.000000
siesta:   Exch.-corr. =    -259.650639
siesta:  Ion-electron =    -446.658876
siesta:       Ion-ion =    -538.732900
siesta:       Ekinion =       0.000000
siesta:         Total =    -861.971775

siesta: Stress tensor (static) (eV/Ang**3):
siesta:    -0.000473    0.000461    0.000461
siesta:     0.000461   -0.000474    0.000467
siesta:     0.000461    0.000467   -0.000474

siesta: Constrained stress tensor (static) (eV/Ang**3):
siesta:    -0.000473    0.000461    0.000461
siesta:     0.000461   -0.000474    0.000467
siesta:     0.000461    0.000467   -0.000474

siesta: Cell volume =        160.937982 Ang**3

siesta: Pressure (static):
siesta:                Solid            Molecule  Units
siesta:           0.00000516          0.00000728  Ry/Bohr**3
siesta:           0.00047373          0.00066805  eV/Ang**3
siesta:           0.75900125          1.07034934  kBar
(Free)E+ p_basis*V_orbitals  =        -852.998172
(Free)Eharris+ p_basis*V_orbitals  =        -852.998338

* Maximum dynamic memory allocated : Node    0 =   101 MB

* Maximum memory occured during init_pulay_arrrays            

timer: CPU execution times:
timer:  Routine       Calls   Time/call    Tot.time        %
timer:  siesta            1    3817.887    3817.887   100.00
timer:  Setup             1       0.205       0.205     0.01
timer:  bands             3       0.551       1.654     0.04
timer:  writewave         3       0.009       0.026     0.00
timer:  KSV_init          1       0.000       0.000     0.00
timer:  IterMD           18     211.989    3815.810    99.95
timer:  hsparse          18       0.274       4.930     0.13
timer:  overlap          18       0.129       2.326     0.06
timer:  IterSCF          88      38.914    3424.390    89.69
timer:  kinefsm          36       0.135       4.866     0.13
timer:  nlefsm           36       5.219     187.879     4.92
timer:  DHSCF           106      10.598    1123.414    29.43
timer:  DHSCF1           18       0.055       0.988     0.03
timer:  DHSCF2           18       3.359      60.470     1.58
timer:  REORD           672       0.000       0.101     0.00
timer:  POISON          124       0.005       0.602     0.02
timer:  DHSCF3          106       8.840     936.989    24.54
timer:  rhoofd          106       3.929     416.426    10.91
timer:  cellXC          106       0.032       3.409     0.09
timer:  vmat            106       4.872     516.385    13.53
timer:  MolMec           36       0.000       0.001     0.00
timer:  diagon           88      28.217    2483.074    65.04
timer:  c-eigval      35461       0.019     657.706    17.23
timer:  c-buildHS     35461       0.012     440.902    11.55
timer:  cdiag         70822       0.009     636.614    16.67
timer:  cdiag1        70822       0.001      55.440     1.45
timer:  cdiag2        70822       0.002     174.349     4.57
timer:  cdiag3        70822       0.006     394.764    10.34
timer:  cdiag4        70822       0.000       8.498     0.22
timer:  c-eigvec      35361       0.024     860.183    22.53
timer:  c-buildD      35360       0.027     964.071    25.25
timer:  DHSCF4           18       6.940     124.923     3.27
timer:  dfscf            18       6.251     112.510     2.95
timer:  overfsm          18       0.128       2.312     0.06
timer:  optical           1       0.000       0.000     0.00
  

elaps: ELAPSED times:
elaps:  Routine       Calls   Time/call    Tot.time        %
elaps:  siesta            1    3820.908    3820.908   100.00
elaps:  Setup             1       0.380       0.380     0.01
elaps:  bands             3       0.552       1.655     0.04
elaps:  writewave         3       0.008       0.025     0.00
elaps:  KSV_init          1       0.000       0.000     0.00
elaps:  IterMD           18     212.147    3818.641    99.94
elaps:  hsparse          18       0.274       4.932     0.13
elaps:  overlap          18       0.129       2.325     0.06
elaps:  IterSCF          88      38.944    3427.113    89.69
elaps:  kinefsm          36       0.135       4.868     0.13
elaps:  nlefsm           36       5.220     187.927     4.92
elaps:  DHSCF           106      10.605    1124.132    29.42
elaps:  DHSCF1           18       0.055       0.989     0.03
elaps:  DHSCF2           18       3.360      60.484     1.58
elaps:  REORD           672       0.000       0.098     0.00
elaps:  POISON          124       0.005       0.603     0.02
elaps:  DHSCF3          106       8.846     937.654    24.54
elaps:  rhoofd          106       3.934     416.966    10.91
elaps:  cellXC          106       0.032       3.411     0.09
elaps:  vmat            106       4.873     516.509    13.52
elaps:  MolMec           36       0.000       0.001     0.00
elaps:  diagon           88      28.236    2484.753    65.03
elaps:  c-eigval      35461       0.019     657.926    17.22
elaps:  c-buildHS     35461       0.012     441.332    11.55
elaps:  cdiag         70822       0.009     636.664    16.66
elaps:  cdiag1        70822       0.001      55.533     1.45
elaps:  cdiag2        70822       0.002     174.545     4.57
elaps:  cdiag3        70822       0.006     395.081    10.34
elaps:  cdiag4        70822       0.000       8.532     0.22
elaps:  c-eigvec      35361       0.024     860.643    22.52
elaps:  c-buildD      35360       0.027     964.832    25.25
elaps:  DHSCF4           18       6.942     124.962     3.27
elaps:  dfscf            18       6.252     112.544     2.95
elaps:  overfsm          18       0.128       2.313     0.06
elaps:  optical           1       0.000       0.000     0.00
  
>> End of run:  14-MAY-2013  13:20:14
