Siesta Version:                                        siesta-3.2
Architecture  : i686-apple-darwin10.8.0--unknown
Compiler flags: g95 -g -O2
SERIAL version

* Running in serial mode
>> Start of run:  13-MAY-2013  16:41:42

                           ***********************       
                           *  WELCOME TO SIESTA  *       
                           ***********************       

reinit: Reading from standard input
************************** Dump of input data file ****************************
# FDF for silicon
SystemName             silicon          # Descriptive name of the system
SystemLabel            si          # Short name for naming files
NumberOfAtoms 8
NumberOfSpecies 1
%block ChemicalSpeciesLabel
1 14 Si
%endblock ChemicalSpeciesLabel
LatticeConstant  5.05 Ang
##Basis set Definition##
PAO.BasisType          split        # Type of PAO basis set
PAO.EnergyShift        50 meV
PAO.BasisSize          DZP          # (DZP) Double-z + polarization
#%block LatticeVectors
#0.500 0.500 0.000
#0.500 0.000 0.500
#0.000 0.500 0.500
#%endblock LatticeVectors
AtomicCoordinatesFormat NotScaledCartesianAng
%block AtomicCoordinatesAndAtomicSpecies
	0.00000000	0.00000000	0.00000000  1 Si  1
	1.36000000	1.36000000	1.36000000  1 Si  2
	2.72000000	2.72000000	0.00000000  1 Si  3
	4.08000000	4.08000000	1.36000000  1 Si  4
	2.72000000	0.00000000	2.72000000  1 Si  5
	4.08000000	1.36000000	4.08000000  1 Si  6
	0.00000000	2.72000000	2.72000000  1 Si  7
	1.36000000	4.08000000	4.08000000  1 Si  8
%endblock AtomicCoordinatesAndAtomicSpecies
MeshCutoff 180.0 Ry # 100, 120, 180, 260
kgrid_cutoff 30.0 Bohr # 30, 35, 40, 45
DM.Mixingweight  0.3
DM.NumberPulay    3
DM.Tolerance      1.d-3
DM.UseSaveDM      true
ElectronicTemperature 25 meV
SolutionMethod    diagon
XC.functional     LDA	    # Local Density Approximation
XC.authors        CA           # Ceperley-Alder
SpinPolarized     false
MD.TypeOfRun           CG           # Type of dynamics:
MD.VariableCell        true
MD.NumCGsteps          100          # Number of CG steps for coordinate optimization
MD.MaxCGDispl          0.2 Bohr     # Maximum atomic displacement
                                    #   in one CG step (Bohr)
MD.MaxForceTol         0.04 eV/Ang  # Tolerance in the maximum
                                    #   atomic force (Ry/Bohr)
				
##Output Specification##
WriteMDhistory         true         # Trajectory information
WriteCoorStep          true
WriteCoorXmol          true
WriteMDXmol            true
WriteEigenvalues true
WriteKbands      true
WriteBands       true
WriteWaveFunctions true
WriteMullikenPoP   1
%block BandLines
1	1.000	1.000 1.000 L
25	0.000	0.000	0.000 \Gamma
30	2.000	0.000	0.000 X
10	2.000	0.500	0.500 U
35	0.000	0.000	0.000 \Gamma
%endblock BandLines
%block WaveFuncKPoints
0.0 0.0 0.0 from 1 to 50 # > 16 = 4/2*8 (Valenzelektronen/2, Atomzahl ...)
%endblock WaveFuncKpoints
************************** End of input data file *****************************

reinit: -----------------------------------------------------------------------
reinit: System Name: silicon
reinit: -----------------------------------------------------------------------
reinit: System Label: si                                                          
reinit: -----------------------------------------------------------------------

initatom: Reading input for the pseudopotentials and atomic orbitals ----------
 Species number:  1  Label: Si Atomic number: 14
Ground state valence configuration:   3s02  3p02
Reading pseudopotential information in formatted form from Si.psf

Valence configuration for pseudopotential generation:
3s( 2.00) rc: 1.75
3p( 2.00) rc: 1.94
3d( 0.00) rc: 2.09
4f( 0.00) rc: 2.09
For Si, standard SIESTA heuristics set lmxkb to 3
 (one more than the basis l, including polarization orbitals).
Use PS.lmax or PS.KBprojectors blocks to override.

<basis_specs>
===============================================================================
Si                   Z=  14    Mass=  28.090        Charge= 0.17977+309
Lmxo=1 Lmxkb= 3    BasisType=split      Semic=F
L=0  Nsemic=0  Cnfigmx=3
          n=1  nzeta=2  polorb=0
            splnorm:   0.15000    
               vcte:    0.0000    
               rinn:    0.0000    
                rcs:    0.0000      0.0000    
            lambdas:    1.0000      1.0000    
L=1  Nsemic=0  Cnfigmx=3
          n=1  nzeta=2  polorb=1
            splnorm:   0.15000    
               vcte:    0.0000    
               rinn:    0.0000    
                rcs:    0.0000      0.0000    
            lambdas:    1.0000      1.0000    
-------------------------------------------------------------------------------
L=0  Nkbl=1  erefs: 0.17977+309
L=1  Nkbl=1  erefs: 0.17977+309
L=2  Nkbl=1  erefs: 0.17977+309
L=3  Nkbl=1  erefs: 0.17977+309
===============================================================================
</basis_specs>

atom: Called for Si                    (Z =  14)

read_vps: Pseudopotential generation method:
read_vps: ATM3      Troullier-Martins                       
Total valence charge:    4.00000

xc_check: Exchange-correlation functional:
xc_check: Ceperley-Alder
V l=0 = -2*Zval/r beyond r=  2.5494
V l=1 = -2*Zval/r beyond r=  2.5494
V l=2 = -2*Zval/r beyond r=  2.5494
V l=3 = -2*Zval/r beyond r=  2.5494
All V_l potentials equal beyond r=  2.0613
This should be close to max(r_c) in ps generation
All pots = -2*Zval/r beyond r=  2.5494

VLOCAL1: 99.0% of the norm of Vloc inside     10.216 Ry
VLOCAL1: 99.9% of the norm of Vloc inside     23.282 Ry
atom: Maximum radius for 4*pi*r*r*local-pseudopot. charge    2.45560
atom: Maximum radius for r*vlocal+2*Zval:    2.14012
GHOST: No ghost state for L =  0
GHOST: No ghost state for L =  1
GHOST: No ghost state for L =  2
GHOST: No ghost state for L =  3

KBgen: Kleinman-Bylander projectors: 
   l= 0   rc=  2.782581   el= -0.796617   Ekb=  4.840502   kbcos=  0.288423
   l= 1   rc=  2.888916   el= -0.307040   Ekb=  1.512733   kbcos=  0.296968
   l= 2   rc=  2.962054   el=  0.002313   Ekb= -2.156507   kbcos= -0.061834
   l= 3   rc=  3.192765   el=  0.003402   Ekb= -0.600958   kbcos= -0.007408

KBgen: Total number of  Kleinman-Bylander projectors:   16
atom: -------------------------------------------------------------------------

atom: SANKEY-TYPE ORBITALS:
atom: Selected multiple-zeta basis: split     

SPLIT: Orbitals with angular momentum L= 0

SPLIT: Basis orbitals for state 3s

SPLIT: PAO cut-off radius determined from an
SPLIT: energy shift=  0.003675 Ry

   izeta = 1
                 lambda =    1.000000
                     rc =    6.116033
                 energy =   -0.793486
                kinetic =    0.528761
    potential(screened) =   -1.322246
       potential(ionic) =   -3.766038

   izeta = 2
                 rmatch =    4.530823
              splitnorm =    0.150000
                 energy =   -0.697320
                kinetic =    0.853435
    potential(screened) =   -1.550756
       potential(ionic) =   -4.120809

SPLIT: Orbitals with angular momentum L= 1

SPLIT: Basis orbitals for state 3p

SPLIT: PAO cut-off radius determined from an
SPLIT: energy shift=  0.003675 Ry

   izeta = 1
                 lambda =    1.000000
                     rc =    7.853192
                 energy =   -0.303674
                kinetic =    0.798475
    potential(screened) =   -1.102149
       potential(ionic) =   -3.307324

   izeta = 2
                 rmatch =    5.397360
              splitnorm =    0.150000
                 energy =   -0.229357
                kinetic =    1.170483
    potential(screened) =   -1.399841
       potential(ionic) =   -3.814095

POLgen: Perturbative polarization orbital with L=  2

POLgen: Polarization orbital for state 3p

   izeta = 1
                     rc =    7.853192
                 energy =    0.331669
                kinetic =    1.088595
    potential(screened) =   -0.756926
       potential(ionic) =   -2.714870
atom: Total number of Sankey-type orbitals: 13

atm_pop: Valence configuration (for local Pseudopot. screening):
 3s( 2.00)                                                            
 3p( 2.00)                                                            
Vna: chval, zval:    4.00000   4.00000

Vna:  Cut-off radius for the neutral-atom potential:   7.853192

atom: _________________________________________________________________________

prinput: Basis input ----------------------------------------------------------

PAO.BasisType split     

%block ChemicalSpeciesLabel
    1   14 Si                      # Species index, atomic number, species label
%endblock ChemicalSpeciesLabel

%block PAO.Basis                 # Define Basis set
Si                    2                    # Species label, number of l-shells
 n=3   0   2                         # n, l, Nzeta 
   6.116      4.531   
   1.000      1.000   
 n=3   1   2 P   1                   # n, l, Nzeta, Polarization, NzetaPol
   7.853      5.397   
   1.000      1.000   
%endblock PAO.Basis

prinput: ----------------------------------------------------------------------

coor:   Atomic-coordinates input format  =     Cartesian coordinates
coor:                                          (in Angstroms)

siesta: Atomic coordinates (Bohr) and species
siesta:      0.00000   0.00000   0.00000  1        1
siesta:      2.57003   2.57003   2.57003  1        2
siesta:      5.14006   5.14006   0.00000  1        3
siesta:      7.71009   7.71009   2.57003  1        4
siesta:      5.14006   0.00000   5.14006  1        5
siesta:      7.71009   2.57003   7.71009  1        6
siesta:      0.00000   5.14006   5.14006  1        7
siesta:      2.57003   7.71009   7.71009  1        8

siesta: System type = bulk      

initatomlists: Number of atoms, orbitals, and projectors:      8   104   128

siesta: ******************** Simulation parameters ****************************
siesta:
siesta: The following are some of the parameters of the simulation.
siesta: A complete list of the parameters used, including default values,
siesta: can be found in file out.fdf
siesta:
redata: Non-Collinear-spin run           =     F
redata: SpinPolarized (Up/Down) run      =     F
redata: Number of spin components        =     1
redata: Long output                      =     F
redata: Number of Atomic Species         =        1
redata: Charge density info will appear in .RHO file
redata: Write Mulliken Pop.              =     Atomic and Orbital charges
redata: Mesh Cutoff                      =   180.0000  Ry
redata: Net charge of the system         =     0.0000 |e|
redata: Max. number of SCF Iter          =       50
redata: Performing Pulay mixing using    =     3 iterations
redata: Mix DM in first SCF step ?       =     F
redata: Write Pulay info on disk?        =     F
redata: Discard 1st Pulay DM after  kick =     F
redata: New DM Mixing Weight             =     0.3000
redata: New DM Occupancy tolerance       = 0.000000000001
redata: No kicks to SCF
redata: DM Mixing Weight for Kicks       =     0.5000
redata: DM Tolerance for SCF             =     0.001000
redata: Require Energy convergence for SCF =     F
redata: DM Energy tolerance for SCF      =     0.000100 eV
redata: Require Harris convergence for SCF =     F
redata: DM Harris energy tolerance for SCF =     0.000100 eV
redata: Using Saved Data (generic)   =     F
redata: Use continuation files for DM    =     T
redata: Neglect nonoverlap interactions  =     F
redata: Method of Calculation            =     Diagonalization
redata: Divide and Conquer               =     T
redata: Electronic Temperature           =     0.0018  Ry
redata: Fix the spin of the system       =     F
redata: Dynamics option                  =     CG coord. optimization
redata: Variable cell                    =     T
redata: Use continuation files for CG    =     F
redata: Max atomic displ per move        =     0.2000  Bohr
redata: Maximum number of CG moves       =      100
redata: Force tolerance                  =     0.0016  Ry/Bohr
redata: Stress tolerance                 =     1.0000  GPa
redata: ***********************************************************************
Total number of electrons:    32.000000
Total ionic charge:    32.000000
 Kpoints in:  196 . Kpoints trimmed:  172

siesta: k-grid: Number of k-points =   172
siesta: k-grid: Cutoff (effective) =    17.675 Ang
siesta: k-grid: Supercell and displacements
siesta: k-grid:    0   7   0      0.000
siesta: k-grid:    0   0   7      0.000
siesta: k-grid:    7   0   0      0.000
Naive supercell factors:     5    5    5

superc: Internal auxiliary supercell:     5 x     5 x     5  =     125
superc: Number of atoms, orbitals, and projectors:   1000  13000  16000

* Maximum dynamic memory allocated =     2 MB

siesta:                 ==============================
                            Begin CG move =      0
                        ==============================

outcoor: Atomic coordinates (Ang):                          
    0.00000000    0.00000000    0.00000000   1       1  Si
    1.36000000    1.36000000    1.36000000   1       2  Si
    2.72000000    2.72000000    0.00000000   1       3  Si
    4.08000000    4.08000000    1.36000000   1       4  Si
    2.72000000    0.00000000    2.72000000   1       5  Si
    4.08000000    1.36000000    4.08000000   1       6  Si
    0.00000000    2.72000000    2.72000000   1       7  Si
    1.36000000    4.08000000    4.08000000   1       8  Si

superc: Internal auxiliary supercell:     5 x     5 x     5  =     125
superc: Number of atoms, orbitals, and projectors:   1000  13000  16000

outcell: Unit cell vectors (Ang):
        5.050000    0.000000    0.000000
        0.000000    5.050000    0.000000
        0.000000    0.000000    5.050000

outcell: Cell vector modules (Ang)   :    5.050000    5.050000    5.050000
outcell: Cell angles (23,13,12) (deg):     90.0000     90.0000     90.0000
outcell: Cell volume (Ang**3)        :    128.7876
New_DM. Step:     1
Initializing Density Matrix...

InitMesh: MESH =    48 x    48 x    48 =      110592
InitMesh: Mesh cutoff (required, used) =   180.000   249.690 Ry

* Maximum dynamic memory allocated =   171 MB

stepf: Fermi-Dirac step function

siesta: Program's energy decomposition (eV):
siesta: Ebs     =      -392.867324
siesta: Eions   =      1510.441798
siesta: Ena     =       449.532726
siesta: Ekin    =       288.938730
siesta: Enl     =       148.596931
siesta: DEna    =         0.000001
siesta: DUscf   =         0.000000
siesta: DUext   =         0.000000
siesta: Exc     =      -267.579656
siesta: eta*DQ  =         0.000000
siesta: Emadel  =         0.000000
siesta: Emeta   =         0.000000
siesta: Emolmec =         0.000000
siesta: Ekinion =         0.000000
siesta: Eharris =      -856.008790
siesta: Etot    =      -890.953067
siesta: FreeEng =      -890.953067

siesta: iscf   Eharris(eV)      E_KS(eV)   FreeEng(eV)   dDmax  Ef(eV)
siesta:    1     -856.0088     -890.9531     -890.9531  1.6648 -6.2478
timer: Routine,Calls,Time,% = IterSCF        1      58.588  98.30
elaps: Routine,Calls,Wall,% = IterSCF        1      58.713  98.21
siesta:    2     -855.5134     -854.9053     -854.9066  0.2413 -5.9065
siesta:    3     -855.2320     -858.9810     -858.9842  0.1828 -6.0084
siesta:    4     -855.2271     -855.6740     -855.6768  0.0277 -6.0085
siesta:    5     -855.2262     -855.1767     -855.1793  0.0060 -6.0109
siesta:    6     -855.2260     -855.2622     -855.2646  0.0040 -6.0133
siesta:    7     -855.2260     -855.2631     -855.2656  0.0031 -6.0138
siesta:    8     -855.2260     -855.2470     -855.2495  0.0014 -6.0138
siesta:    9     -855.2260     -855.2354     -855.2379  0.0006 -6.0137

siesta: E_KS(eV) =             -855.2265

siesta: E_KS - E_eggbox =      -855.2265

siesta: Atomic forces (eV/Ang):
----------------------------------------
   Tot    0.005192    0.005194    0.005181
----------------------------------------
   Max    4.560619
   Res    3.046583    sqrt( Sum f_i^2 / 3N )
----------------------------------------
   Max    4.560619    constrained

Stress-tensor-Voigt (kbar):     -383.15     -383.15     -383.15      126.07      126.07      126.07
(Free)E + p*V (eV/cell)     -824.4308
Target enthalpy (eV/cell)     -855.2290

siesta: Stress tensor (static) (eV/Ang**3):
        -0.239140    0.078685    0.078685
         0.078685   -0.239140    0.078685
         0.078685    0.078685   -0.239140

siesta: Pressure (static):        383.14845935  kBar

siesta: Stress tensor (total) (eV/Ang**3):
        -0.239140    0.078685    0.078685
         0.078685   -0.239140    0.078685
         0.078685    0.078685   -0.239140

siesta: Pressure (total):        383.14845935  kBar

mulliken: Mulliken Atomic and Orbital Populations:

Species: Si                  
Atom  Qatom  Qorb
               3s      3s      3py     3pz     3px     3py     3pz     3px     
               3Pdxy   3Pdyz   3Pdz2   3Pdxz   3Pdx2-y2
   1  4.309   0.220   0.833   0.078   0.078   0.078   0.706   0.706   0.706
              0.191   0.191   0.165   0.191   0.165
   2  3.834   0.649   0.588   0.063   0.063   0.063   0.608   0.608   0.608
              0.139   0.139   0.083   0.139   0.083
   3  3.904   0.520   0.644   0.002   0.106   0.002   0.675   0.617   0.675
              0.163   0.149   0.089   0.149   0.115
   4  4.048   0.384   0.719   0.065  -0.051   0.065   0.681   0.746   0.681
              0.163   0.169   0.151   0.169   0.107
   5  3.904   0.520   0.644   0.106   0.002   0.002   0.617   0.675   0.675
              0.149   0.149   0.109   0.163   0.095
   6  4.048   0.384   0.719  -0.051   0.065   0.065   0.746   0.681   0.681
              0.169   0.169   0.118   0.163   0.140
   7  3.904   0.520   0.644   0.002   0.002   0.106   0.675   0.675   0.617
              0.149   0.163   0.109   0.149   0.095
   8  4.048   0.384   0.719   0.065   0.065  -0.051   0.681   0.681   0.746
              0.169   0.163   0.118   0.169   0.140

mulliken: Qtot =       32.000

cgvc: No target stress found, assuming hydrostatic MD.TargetPressure.

cgvc: Target stress (kBar)
cgvc:        -0.000       0.000       0.000
cgvc:         0.000      -0.000       0.000
cgvc:         0.000       0.000      -0.000

* Maximum dynamic memory allocated =   173 MB

siesta:                 ==============================
                            Begin CG move =      1
                        ==============================

outcoor: Atomic coordinates (Ang):                          
    0.01810443    0.01810439    0.01810436   1       1  Si
    1.36638814    1.36638813    1.36638810   1       2  Si
    2.72938164    2.72938165    0.00528739   1       3  Si
    4.06997864    4.06997863    1.37048016   1       4  Si
    2.72938161    0.00528741    2.72938163   1       5  Si
    4.06997863    1.37048020    4.06997862   1       6  Si
    0.00528739    2.72938163    2.72938163   1       7  Si
    1.37048019    4.06997865    4.06997864   1       8  Si
 Kpoints in:  196 . Kpoints trimmed:  172

siesta: k-grid: Number of k-points =   172
siesta: k-grid: Cutoff (effective) =    17.798 Ang
siesta: k-grid: Supercell and displacements
siesta: k-grid:    0   0   7      0.000
siesta: k-grid:    7   0   0      0.000
siesta: k-grid:    0   7   0      0.000
Naive supercell factors:     5    5    5

superc: Internal auxiliary supercell:     5 x     5 x     5  =     125
superc: Number of atoms, orbitals, and projectors:   1000  13000  16000

outcell: Unit cell vectors (Ang):
        5.085250   -0.011598   -0.011598
       -0.011598    5.085250   -0.011598
       -0.011598   -0.011598    5.085250

outcell: Cell vector modules (Ang)   :    5.085276    5.085276    5.085276
outcell: Cell angles (23,13,12) (deg):     90.2611     90.2611     90.2611
outcell: Cell volume (Ang**3)        :    131.5013
New_DM. Step:     2
Re-using DM from previous geometry...
Re-using DM without extrapolation (not allowed)
Density Matrix sparsity pattern changed.

InitMesh: MESH =    48 x    48 x    48 =      110592
InitMesh: Mesh cutoff (required, used) =   180.000   246.248 Ry

siesta: iscf   Eharris(eV)      E_KS(eV)   FreeEng(eV)   dDmax  Ef(eV)
siesta:    1     -857.0657     -855.7173     -855.7197  0.0800 -5.9519
siesta:    2     -857.0840     -857.0447     -857.0463  0.0255 -5.9126
siesta:    3     -857.0580     -857.0165     -857.0181  0.0020 -5.9340
siesta:    4     -857.0578     -857.0394     -857.0410  0.0008 -5.9364

siesta: E_KS(eV) =             -857.0585

siesta: Atomic forces (eV/Ang):
----------------------------------------
   Tot    0.006587    0.006587    0.006566
----------------------------------------
   Max    3.448331
   Res    2.358179    sqrt( Sum f_i^2 / 3N )
----------------------------------------
   Max    3.448331    constrained

Stress-tensor-Voigt (kbar):     -321.23     -321.23     -321.23       90.48       90.48       90.48
(Free)E + p*V (eV/cell)     -830.6947
Target enthalpy (eV/cell)     -857.0601

siesta: Stress tensor (static) (eV/Ang**3):
        -0.200495    0.056472    0.056472
         0.056472   -0.200495    0.056472
         0.056472    0.056472   -0.200495

siesta: Pressure (static):        321.23184969  kBar

siesta: Stress tensor (total) (eV/Ang**3):
        -0.200495    0.056472    0.056472
         0.056472   -0.200495    0.056472
         0.056472    0.056472   -0.200495

siesta: Pressure (total):        321.23184969  kBar

mulliken: Mulliken Atomic and Orbital Populations:

Species: Si                  
Atom  Qatom  Qorb
               3s      3s      3py     3pz     3px     3py     3pz     3px     
               3Pdxy   3Pdyz   3Pdz2   3Pdxz   3Pdx2-y2
   1  4.201   0.281   0.783   0.051   0.051   0.051   0.715   0.715   0.715
              0.182   0.182   0.146   0.182   0.146
   2  3.868   0.650   0.582   0.084   0.084   0.084   0.603   0.603   0.603
              0.137   0.137   0.082   0.137   0.082
   3  3.934   0.527   0.637   0.028   0.117   0.028   0.665   0.614   0.665
              0.159   0.147   0.089   0.147   0.111
   4  4.044   0.409   0.701   0.080  -0.044   0.080   0.669   0.742   0.669
              0.160   0.167   0.140   0.167   0.103
   5  3.934   0.527   0.637   0.117   0.028   0.028   0.614   0.665   0.665
              0.147   0.147   0.105   0.159   0.094
   6  4.044   0.409   0.701  -0.044   0.080   0.080   0.742   0.669   0.669
              0.167   0.167   0.113   0.160   0.131
   7  3.934   0.527   0.637   0.028   0.028   0.117   0.665   0.665   0.614
              0.147   0.159   0.105   0.147   0.094
   8  4.044   0.409   0.701   0.080   0.080  -0.044   0.669   0.669   0.742
              0.167   0.160   0.113   0.167   0.131

mulliken: Qtot =       32.000

* Maximum dynamic memory allocated =   184 MB

siesta:                 ==============================
                            Begin CG move =      2
                        ==============================

outcoor: Atomic coordinates (Ang):                          
    0.04725083    0.04725074    0.04725066   1       1  Si
    1.37664028    1.37664027    1.37664018   1       2  Si
    2.74415938    2.74415940    0.01432260   1       3  Si
    4.05325495    4.05325494    1.38830764   1       4  Si
    2.74415931    0.01432266    2.74415936   1       5  Si
    4.05325495    1.38830776    4.05325490   1       6  Si
    0.01432261    2.74415935    2.74415936   1       7  Si
    1.38830773    4.05325498    4.05325497   1       8  Si
 Kpoints in:  196 . Kpoints trimmed:  172

siesta: k-grid: Number of k-points =   172
siesta: k-grid: Cutoff (effective) =    17.996 Ang
siesta: k-grid: Supercell and displacements
siesta: k-grid:    0   0   7      0.000
siesta: k-grid:    7   0   0      0.000
siesta: k-grid:    0   7   0      0.000
Naive supercell factors:     5    5    5

superc: Internal auxiliary supercell:     5 x     5 x     5  =     125
superc: Number of atoms, orbitals, and projectors:   1000  13000  16000

outcell: Unit cell vectors (Ang):
        5.141649   -0.030156   -0.030156
       -0.030156    5.141649   -0.030156
       -0.030156   -0.030156    5.141649

outcell: Cell vector modules (Ang)   :    5.141826    5.141826    5.141826
outcell: Cell angles (23,13,12) (deg):     90.6701     90.6701     90.6701
outcell: Cell volume (Ang**3)        :    135.9134
New_DM. Step:     3
Re-using DM from previous geometry...
Re-using DM without extrapolation (not allowed)
Density Matrix sparsity pattern changed.

InitMesh: MESH =    48 x    48 x    48 =      110592
InitMesh: Mesh cutoff (required, used) =   180.000   240.918 Ry

siesta: iscf   Eharris(eV)      E_KS(eV)   FreeEng(eV)   dDmax  Ef(eV)
siesta:    1     -859.2064     -857.2407     -857.2422  0.0915 -5.7944
siesta:    2     -859.2985     -859.1112     -859.1130  0.0572 -5.7307
siesta:    3     -859.1745     -859.0041     -859.0058  0.0097 -5.7669
siesta:    4     -859.1736     -859.1380     -859.1397  0.0015 -5.7706
siesta:    5     -859.1736     -859.1530     -859.1548  0.0008 -5.7708

siesta: E_KS(eV) =             -859.1697

siesta: Atomic forces (eV/Ang):
----------------------------------------
   Tot   -0.002950   -0.002957   -0.002953
----------------------------------------
   Max    2.478945
   Res    1.501520    sqrt( Sum f_i^2 / 3N )
----------------------------------------
   Max    2.478945    constrained

Stress-tensor-Voigt (kbar):     -238.63     -238.63     -238.63       43.05       43.05       43.05
(Free)E + p*V (eV/cell)     -838.9284
Target enthalpy (eV/cell)     -859.1715

siesta: Stress tensor (static) (eV/Ang**3):
        -0.148941    0.026867    0.026867
         0.026867   -0.148941    0.026867
         0.026867    0.026867   -0.148941

siesta: Pressure (static):        238.63175761  kBar

siesta: Stress tensor (total) (eV/Ang**3):
        -0.148941    0.026867    0.026867
         0.026867   -0.148941    0.026867
         0.026867    0.026867   -0.148941

siesta: Pressure (total):        238.63175761  kBar

mulliken: Mulliken Atomic and Orbital Populations:

Species: Si                  
Atom  Qatom  Qorb
               3s      3s      3py     3pz     3px     3py     3pz     3px     
               3Pdxy   3Pdyz   3Pdz2   3Pdxz   3Pdx2-y2
   1  4.080   0.383   0.715   0.051   0.051   0.051   0.696   0.696   0.696
              0.167   0.167   0.121   0.167   0.121
   2  3.916   0.650   0.575   0.114   0.114   0.114   0.595   0.595   0.595
              0.135   0.135   0.081   0.135   0.081
   3  3.971   0.538   0.627   0.068   0.125   0.068   0.647   0.614   0.647
              0.153   0.145   0.089   0.145   0.103
   4  4.031   0.447   0.676   0.100  -0.017   0.100   0.651   0.722   0.651
              0.154   0.162   0.125   0.162   0.098
   5  3.971   0.538   0.627   0.125   0.068   0.068   0.614   0.647   0.647
              0.145   0.145   0.100   0.153   0.093
   6  4.031   0.447   0.676  -0.017   0.100   0.100   0.722   0.651   0.651
              0.162   0.162   0.104   0.154   0.118
   7  3.971   0.538   0.627   0.068   0.068   0.125   0.647   0.647   0.614
              0.145   0.153   0.100   0.145   0.093
   8  4.031   0.447   0.676   0.100   0.100  -0.017   0.651   0.651   0.722
              0.162   0.154   0.104   0.162   0.118

mulliken: Qtot =       32.000

* Maximum dynamic memory allocated =   184 MB

siesta:                 ==============================
                            Begin CG move =      3
                        ==============================

outcoor: Atomic coordinates (Ang):                          
    0.09434416    0.09434398    0.09434380   1       1  Si
    1.39312340    1.39312336    1.39312319   1       2  Si
    2.76720757    2.76720761    0.03025194   1       3  Si
    4.02473191    4.02473190    1.41954326   1       4  Si
    2.76720743    0.03025205    2.76720753   1       5  Si
    4.02473191    1.41954349    4.02473183   1       6  Si
    0.03025196    2.76720752    2.76720754   1       7  Si
    1.41954344    4.02473198    4.02473195   1       8  Si
 Kpoints in:  196 . Kpoints trimmed:  172

siesta: k-grid: Number of k-points =   172
siesta: k-grid: Cutoff (effective) =    18.314 Ang
siesta: k-grid: Supercell and displacements
siesta: k-grid:    0   0   7      0.000
siesta: k-grid:    7   0   0      0.000
siesta: k-grid:    0   7   0      0.000
Naive supercell factors:     5    5    5

superc: Internal auxiliary supercell:     5 x     5 x     5  =     125
superc: Number of atoms, orbitals, and projectors:   1000  13000  16000

outcell: Unit cell vectors (Ang):
        5.231888   -0.059847   -0.059847
       -0.059847    5.231888   -0.059847
       -0.059847   -0.059847    5.231888

outcell: Cell vector modules (Ang)   :    5.232572    5.232572    5.232572
outcell: Cell angles (23,13,12) (deg):     91.3031     91.3031     91.3031
outcell: Cell volume (Ang**3)        :    143.1540
New_DM. Step:     4
Re-using DM from previous geometry...
Re-using DM without extrapolation (not allowed)
Density Matrix sparsity pattern changed.

InitMesh: MESH =    48 x    48 x    48 =      110592
InitMesh: Mesh cutoff (required, used) =   180.000   232.816 Ry

siesta: iscf   Eharris(eV)      E_KS(eV)   FreeEng(eV)   dDmax  Ef(eV)
siesta:    1     -861.0243     -858.3423     -858.3440  0.0875 -5.6895
siesta:    2     -861.4625     -860.5694     -860.5699  0.1102 -5.6560
siesta:    3     -860.8734     -860.2798     -860.2801  0.0305 -5.6673
siesta:    4     -860.8706     -860.7646     -860.7649  0.0031 -5.6701
siesta:    5     -860.8706     -860.7981     -860.7984  0.0019 -5.6696
siesta:    6     -860.8706     -860.8550     -860.8553  0.0005 -5.6689

siesta: E_KS(eV) =             -860.8644

siesta: Atomic forces (eV/Ang):
----------------------------------------
   Tot    0.001150    0.001146    0.001166
----------------------------------------
   Max    1.563456
   Res    0.776307    sqrt( Sum f_i^2 / 3N )
----------------------------------------
   Max    1.563456    constrained

Stress-tensor-Voigt (kbar):     -144.68     -144.68     -144.68      -12.83      -12.83      -12.83
(Free)E + p*V (eV/cell)     -847.9374
Target enthalpy (eV/cell)     -860.8647

siesta: Stress tensor (static) (eV/Ang**3):
        -0.090303   -0.008010   -0.008011
        -0.008010   -0.090303   -0.008010
        -0.008011   -0.008010   -0.090304

siesta: Pressure (static):        144.68375784  kBar

siesta: Stress tensor (total) (eV/Ang**3):
        -0.090303   -0.008010   -0.008011
        -0.008010   -0.090303   -0.008010
        -0.008011   -0.008010   -0.090304

siesta: Pressure (total):        144.68375784  kBar

mulliken: Mulliken Atomic and Orbital Populations:

Species: Si                  
Atom  Qatom  Qorb
               3s      3s      3py     3pz     3px     3py     3pz     3px     
               3Pdxy   3Pdyz   3Pdz2   3Pdxz   3Pdx2-y2
   1  3.991   0.542   0.623   0.110   0.110   0.110   0.626   0.626   0.626
              0.144   0.144   0.093   0.144   0.093
   2  3.966   0.637   0.575   0.150   0.150   0.150   0.582   0.582   0.582
              0.133   0.133   0.080   0.133   0.080
   3  4.002   0.546   0.620   0.124   0.118   0.124   0.616   0.622   0.616
              0.144   0.143   0.092   0.143   0.092
   4  4.013   0.511   0.639   0.133   0.053   0.133   0.618   0.667   0.618
              0.145   0.150   0.104   0.150   0.090
   5  4.002   0.546   0.620   0.118   0.124   0.124   0.622   0.616   0.616
              0.143   0.143   0.092   0.144   0.092
   6  4.013   0.511   0.639   0.053   0.133   0.133   0.667   0.618   0.618
              0.150   0.150   0.093   0.145   0.100
   7  4.002   0.546   0.620   0.124   0.124   0.118   0.616   0.616   0.622
              0.143   0.144   0.092   0.143   0.092
   8  4.013   0.511   0.639   0.133   0.133   0.053   0.618   0.618   0.667
              0.150   0.145   0.093   0.150   0.100

mulliken: Qtot =       32.000

* Maximum dynamic memory allocated =   184 MB

siesta:                 ==============================
                            Begin CG move =      4
                        ==============================

outcoor: Atomic coordinates (Ang):                          
    0.15086030    0.15086001    0.15085971   1       1  Si
    1.41277558    1.41277553    1.41277524   1       2  Si
    2.79356023    2.79356030    0.05146696   1       3  Si
    3.98813363    3.98813361    1.46086205   1       4  Si
    2.79356000    0.05146715    2.79356017   1       5  Si
    3.98813362    1.46086241    3.98813349   1       6  Si
    0.05146699    2.79356015    2.79356018   1       7  Si
    1.46086233    3.98813374    3.98813370   1       8  Si
 Kpoints in:  108 . Kpoints trimmed:  108

siesta: k-grid: Number of k-points =   108
siesta: k-grid: Cutoff (effective) =    16.021 Ang
siesta: k-grid: Supercell and displacements
siesta: k-grid:    0   0   6      0.500
siesta: k-grid:    6   0   0      0.500
siesta: k-grid:    0   6   0      0.500
Naive supercell factors:     5    5    5

superc: Internal auxiliary supercell:     5 x     5 x     5  =     125
superc: Number of atoms, orbitals, and projectors:   1000  13000  16000

outcell: Unit cell vectors (Ang):
        5.338781   -0.095019   -0.095019
       -0.095019    5.338781   -0.095019
       -0.095019   -0.095019    5.338781

outcell: Cell vector modules (Ang)   :    5.340472    5.340472    5.340472
outcell: Cell angles (23,13,12) (deg):     92.0205     92.0205     92.0205
outcell: Cell volume (Ang**3)        :    152.0228
New_DM. Step:     5
Re-using DM from previous geometry...
Re-using DM without extrapolation (not allowed)
Density Matrix sparsity pattern changed.

InitMesh: MESH =    48 x    48 x    48 =      110592
InitMesh: Mesh cutoff (required, used) =   180.000   223.844 Ry

siesta: iscf   Eharris(eV)      E_KS(eV)   FreeEng(eV)   dDmax  Ef(eV)
siesta:    1     -861.2038     -858.9045     -858.9048  0.0772 -5.6546
siesta:    2     -862.2713     -860.1613     -860.1617  0.1172 -5.6732
siesta:    3     -860.8551     -860.0239     -860.0252  0.0379 -5.6704
siesta:    4     -860.8545     -860.6246     -860.6252  0.0048 -5.6752
siesta:    5     -860.8542     -860.7223     -860.7230  0.0024 -5.6746
siesta:    6     -860.8541     -860.8058     -860.8065  0.0007 -5.6735

siesta: E_KS(eV) =             -860.8273

siesta: Atomic forces (eV/Ang):
----------------------------------------
   Tot    0.002168    0.002177    0.002166
----------------------------------------
   Max    1.691616
   Res    1.188172    sqrt( Sum f_i^2 / 3N )
----------------------------------------
   Max    1.691616    constrained

Stress-tensor-Voigt (kbar):      -78.50      -78.50      -78.50      -58.31      -58.31      -58.31
(Free)E + p*V (eV/cell)     -853.3797
Target enthalpy (eV/cell)     -860.8280

siesta: Stress tensor (static) (eV/Ang**3):
        -0.048994   -0.036392   -0.036392
        -0.036392   -0.048994   -0.036392
        -0.036392   -0.036392   -0.048994

siesta: Pressure (static):         78.49823727  kBar

siesta: Stress tensor (total) (eV/Ang**3):
        -0.048994   -0.036392   -0.036392
        -0.036392   -0.048994   -0.036392
        -0.036392   -0.036392   -0.048994

siesta: Pressure (total):         78.49823727  kBar

mulliken: Mulliken Atomic and Orbital Populations:

Species: Si                  
Atom  Qatom  Qorb
               3s      3s      3py     3pz     3px     3py     3pz     3px     
               3Pdxy   3Pdyz   3Pdz2   3Pdxz   3Pdx2-y2
   1  4.005   0.703   0.546   0.234   0.234   0.234   0.517   0.517   0.517
              0.120   0.120   0.072   0.120   0.072
   2  4.000   0.605   0.592   0.175   0.175   0.175   0.571   0.571   0.571
              0.134   0.134   0.082   0.134   0.082
   3  4.002   0.537   0.626   0.181   0.084   0.181   0.577   0.638   0.577
              0.136   0.142   0.100   0.142   0.081
   4  3.996   0.574   0.606   0.170   0.148   0.170   0.580   0.593   0.580
              0.134   0.135   0.089   0.135   0.084
   5  4.002   0.537   0.626   0.084   0.181   0.181   0.638   0.577   0.577
              0.142   0.142   0.086   0.136   0.095
   6  3.996   0.574   0.606   0.148   0.170   0.170   0.593   0.580   0.580
              0.135   0.135   0.085   0.134   0.087
   7  4.002   0.537   0.626   0.181   0.181   0.084   0.577   0.577   0.638
              0.142   0.136   0.086   0.142   0.095
   8  3.996   0.574   0.606   0.170   0.170   0.148   0.580   0.580   0.593
              0.135   0.134   0.085   0.135   0.087

mulliken: Qtot =       32.000

* Maximum dynamic memory allocated =   184 MB

siesta:                 ==============================
                            Begin CG move =      5
                        ==============================

outcoor: Atomic coordinates (Ang):                          
    0.12673747    0.12673723    0.12673698   1       1  Si
    1.40440430    1.40440425    1.40440401   1       2  Si
    2.78248309    2.78248315    0.04213725   1       3  Si
    4.00406467    4.00406466    1.44272449   1       4  Si
    2.78248290    0.04213740    2.78248304   1       5  Si
    4.00406466    1.44272480    4.00406456   1       6  Si
    0.04213727    2.78248303    2.78248305   1       7  Si
    1.44272474    4.00406477    4.00406473   1       8  Si
 Kpoints in:  108 . Kpoints trimmed:  108

siesta: k-grid: Number of k-points =   108
siesta: k-grid: Cutoff (effective) =    15.884 Ang
siesta: k-grid: Supercell and displacements
siesta: k-grid:    0   0   6      0.500
siesta: k-grid:    6   0   0      0.500
siesta: k-grid:    0   6   0      0.500
Naive supercell factors:     5    5    5

superc: Internal auxiliary supercell:     5 x     5 x     5  =     125
superc: Number of atoms, orbitals, and projectors:   1000  13000  16000

outcell: Unit cell vectors (Ang):
        5.293339   -0.080067   -0.080067
       -0.080067    5.293339   -0.080067
       -0.080067   -0.080067    5.293339

outcell: Cell vector modules (Ang)   :    5.294550    5.294550    5.294550
outcell: Cell angles (23,13,12) (deg):     91.7197     91.7197     91.7197
outcell: Cell volume (Ang**3)        :    148.2136
New_DM. Step:     6
Re-using DM from previous geometry...
Re-using DM without extrapolation (not allowed)
Density Matrix sparsity pattern changed.

InitMesh: MESH =    48 x    48 x    48 =      110592
InitMesh: Mesh cutoff (required, used) =   180.000   227.580 Ry

siesta: iscf   Eharris(eV)      E_KS(eV)   FreeEng(eV)   dDmax  Ef(eV)
siesta:    1     -861.1451     -861.6357     -861.6363  0.0284 -5.7434
siesta:    2     -861.3107     -860.9721     -860.9722  0.0617 -5.7338
siesta:    3     -861.0865     -861.1960     -861.1961  0.0131 -5.7333
siesta:    4     -861.0861     -861.0572     -861.0573  0.0021 -5.7313
siesta:    5     -861.0861     -861.0643     -861.0643  0.0014 -5.7315
siesta:    6     -861.0861     -861.0800     -861.0801  0.0002 -5.7318

siesta: E_KS(eV) =             -861.0830

siesta: Atomic forces (eV/Ang):
----------------------------------------
   Tot   -0.001073   -0.001080   -0.001078
----------------------------------------
   Max    1.033653
   Res    0.895707    sqrt( Sum f_i^2 / 3N )
----------------------------------------
   Max    1.033653    constrained

Stress-tensor-Voigt (kbar):     -101.63     -101.63     -101.63      -40.90      -40.90      -40.90
(Free)E + p*V (eV/cell)     -851.6819
Target enthalpy (eV/cell)     -861.0831

siesta: Stress tensor (static) (eV/Ang**3):
        -0.063430   -0.025528   -0.025528
        -0.025528   -0.063430   -0.025528
        -0.025528   -0.025528   -0.063430

siesta: Pressure (static):        101.62693973  kBar

siesta: Stress tensor (total) (eV/Ang**3):
        -0.063430   -0.025528   -0.025528
        -0.025528   -0.063430   -0.025528
        -0.025528   -0.025528   -0.063430

siesta: Pressure (total):        101.62693973  kBar

mulliken: Mulliken Atomic and Orbital Populations:

Species: Si                  
Atom  Qatom  Qorb
               3s      3s      3py     3pz     3px     3py     3pz     3px     
               3Pdxy   3Pdyz   3Pdz2   3Pdxz   3Pdx2-y2
   1  3.986   0.637   0.576   0.177   0.177   0.177   0.565   0.565   0.565
              0.130   0.130   0.080   0.130   0.080
   2  3.988   0.622   0.582   0.168   0.168   0.168   0.574   0.574   0.574
              0.133   0.133   0.081   0.133   0.081
   3  4.005   0.542   0.622   0.158   0.101   0.158   0.594   0.631   0.594
              0.139   0.143   0.095   0.143   0.085
   4  4.004   0.551   0.617   0.155   0.111   0.155   0.595   0.623   0.595
              0.138   0.141   0.094   0.141   0.086
   5  4.005   0.542   0.622   0.101   0.158   0.158   0.631   0.594   0.594
              0.143   0.143   0.088   0.139   0.093
   6  4.004   0.551   0.617   0.111   0.155   0.155   0.623   0.595   0.595
              0.141   0.141   0.088   0.138   0.092
   7  4.005   0.542   0.622   0.158   0.158   0.101   0.594   0.594   0.631
              0.143   0.139   0.088   0.143   0.093
   8  4.004   0.551   0.617   0.155   0.155   0.111   0.595   0.595   0.623
              0.141   0.138   0.088   0.141   0.092

mulliken: Qtot =       32.000

cgvc: Finished line minimization    1.  Mean atomic displacement =    0.1678

* Maximum dynamic memory allocated =   184 MB

siesta:                 ==============================
                            Begin CG move =      6
                        ==============================

outcoor: Atomic coordinates (Ang):                          
    0.11357971    0.11357963    0.11357892   1       1  Si
    1.48049141    1.48049140    1.48049156   1       2  Si
    2.80547699    2.80547692    0.12116118   1       3  Si
    4.13643808    4.13643817    1.48019857   1       4  Si
    2.80547715    0.12116175    2.80547722   1       5  Si
    4.13643766    1.48019840    4.13643791   1       6  Si
    0.12116180    2.80547718    2.80547727   1       7  Si
    1.48019841    4.13643754    4.13643791   1       8  Si
 Kpoints in:  108 . Kpoints trimmed:  108

siesta: k-grid: Number of k-points =   108
siesta: k-grid: Cutoff (effective) =    16.203 Ang
siesta: k-grid: Supercell and displacements
siesta: k-grid:    6   0   0      0.500
siesta: k-grid:    0   6   0      0.500
siesta: k-grid:    0   0   6      0.500
Naive supercell factors:     5    5    5

superc: Internal auxiliary supercell:     5 x     5 x     5  =     125
superc: Number of atoms, orbitals, and projectors:   1000  13000  16000

outcell: Unit cell vectors (Ang):
        5.400233   -0.057674   -0.057674
       -0.057674    5.400233   -0.057674
       -0.057674   -0.057674    5.400233

outcell: Cell vector modules (Ang)   :    5.400849    5.400849    5.400849
outcell: Cell angles (23,13,12) (deg):     91.2171     91.2171     91.2171
outcell: Cell volume (Ang**3)        :    157.4301
New_DM. Step:     7
Re-using DM from previous geometry...
Re-using DM without extrapolation (not allowed)
Density Matrix sparsity pattern changed.

InitMesh: MESH =    48 x    48 x    48 =      110592
InitMesh: Mesh cutoff (required, used) =   180.000   218.505 Ry

siesta: iscf   Eharris(eV)      E_KS(eV)   FreeEng(eV)   dDmax  Ef(eV)
siesta:    1     -861.8982     -859.6653     -859.6653  0.0675 -5.3966
siesta:    2     -862.1128     -861.6751     -861.6751  0.0904 -5.3928
siesta:    3     -861.8223     -861.4824     -861.4824  0.0124 -5.4003
siesta:    4     -861.8210     -861.7655     -861.7655  0.0027 -5.4028
siesta:    5     -861.8209     -861.7864     -861.7864  0.0015 -5.4024
siesta:    6     -861.8209     -861.8066     -861.8066  0.0003 -5.4017

siesta: E_KS(eV) =             -861.8115

siesta: Atomic forces (eV/Ang):
----------------------------------------
   Tot   -0.000944   -0.000942   -0.000933
----------------------------------------
   Max    0.522649
   Res    0.319238    sqrt( Sum f_i^2 / 3N )
----------------------------------------
   Max    0.522649    constrained

Stress-tensor-Voigt (kbar):      -22.70      -22.70      -22.70      -12.06      -12.06      -12.06
(Free)E + p*V (eV/cell)     -859.5806
Target enthalpy (eV/cell)     -861.8115

siesta: Stress tensor (static) (eV/Ang**3):
        -0.014171   -0.007526   -0.007526
        -0.007526   -0.014171   -0.007526
        -0.007526   -0.007526   -0.014171

siesta: Pressure (static):         22.70451441  kBar

siesta: Stress tensor (total) (eV/Ang**3):
        -0.014171   -0.007526   -0.007526
        -0.007526   -0.014171   -0.007526
        -0.007526   -0.007526   -0.014171

siesta: Pressure (total):         22.70451441  kBar

mulliken: Mulliken Atomic and Orbital Populations:

Species: Si                  
Atom  Qatom  Qorb
               3s      3s      3py     3pz     3px     3py     3pz     3px     
               3Pdxy   3Pdyz   3Pdz2   3Pdxz   3Pdx2-y2
   1  3.994   0.671   0.554   0.225   0.225   0.225   0.527   0.527   0.527
              0.122   0.122   0.073   0.122   0.073
   2  4.004   0.605   0.587   0.194   0.194   0.194   0.559   0.559   0.559
              0.130   0.130   0.080   0.130   0.080
   3  4.002   0.602   0.589   0.204   0.171   0.204   0.552   0.574   0.552
              0.129   0.132   0.084   0.132   0.078
   4  3.998   0.624   0.578   0.201   0.204   0.201   0.551   0.547   0.551
              0.128   0.128   0.078   0.128   0.079
   5  4.002   0.602   0.589   0.171   0.204   0.204   0.574   0.552   0.552
              0.132   0.132   0.080   0.129   0.082
   6  3.998   0.624   0.578   0.204   0.201   0.201   0.547   0.551   0.551
              0.128   0.128   0.079   0.128   0.078
   7  4.002   0.602   0.589   0.204   0.204   0.171   0.552   0.552   0.574
              0.132   0.129   0.080   0.132   0.082
   8  3.998   0.624   0.578   0.201   0.201   0.204   0.551   0.551   0.547
              0.128   0.128   0.079   0.128   0.078

mulliken: Qtot =       32.000

* Maximum dynamic memory allocated =   184 MB

siesta:                 ==============================
                            Begin CG move =      7
                        ==============================

outcoor: Atomic coordinates (Ang):                          
    0.09945173    0.09945181    0.09945062   1       1  Si
    1.55856398    1.55856399    1.55856458   1       2  Si
    2.82666961    2.82666940    0.20145315   1       3  Si
    4.26981460    4.26981478    1.51698444   1       4  Si
    2.82667014    0.20145416    2.82667012   1       5  Si
    4.26981373    1.51698378    4.26981435   1       6  Si
    0.20145440    2.82667006    2.82667023   1       7  Si
    1.51698386    4.26981339    4.26981418   1       8  Si
 Kpoints in:  108 . Kpoints trimmed:  108

siesta: k-grid: Number of k-points =   108
siesta: k-grid: Cutoff (effective) =    16.522 Ang
siesta: k-grid: Supercell and displacements
siesta: k-grid:    6   0   0      0.500
siesta: k-grid:    0   6   0      0.500
siesta: k-grid:    0   0   6      0.500
Naive supercell factors:     5    5    5

superc: Internal auxiliary supercell:     5 x     5 x     5  =     125
superc: Number of atoms, orbitals, and projectors:   1000  13000  16000

outcell: Unit cell vectors (Ang):
        5.507126   -0.035281   -0.035281
       -0.035281    5.507126   -0.035282
       -0.035281   -0.035282    5.507127

outcell: Cell vector modules (Ang)   :    5.507352    5.507352    5.507353
outcell: Cell angles (23,13,12) (deg):     90.7317     90.7317     90.7317
outcell: Cell volume (Ang**3)        :    167.0019
New_DM. Step:     8
Re-using DM from previous geometry...
Re-using DM without extrapolation (not allowed)
Density Matrix sparsity pattern changed.

InitMesh: MESH =    48 x    48 x    48 =      110592
InitMesh: Mesh cutoff (required, used) =   180.000   210.011 Ry

siesta: iscf   Eharris(eV)      E_KS(eV)   FreeEng(eV)   dDmax  Ef(eV)
siesta:    1     -861.4685     -859.8568     -859.8569  0.0543 -5.1700
siesta:    2     -861.7352     -861.2040     -861.2042  0.1066 -5.2470
siesta:    3     -861.3781     -860.9918     -860.9920  0.0145 -5.2024
siesta:    4     -861.3776     -861.3108     -861.3110  0.0038 -5.2047
siesta:    5     -861.3775     -861.3384     -861.3386  0.0020 -5.2044
siesta:    6     -861.3774     -861.3604     -861.3605  0.0005 -5.2039

siesta: E_KS(eV) =             -861.3667

siesta: Atomic forces (eV/Ang):
----------------------------------------
   Tot   -0.001938   -0.001937   -0.001937
----------------------------------------
   Max    1.375912
   Res    0.961850    sqrt( Sum f_i^2 / 3N )
----------------------------------------
   Max    1.375912    constrained

Stress-tensor-Voigt (kbar):       24.31       24.31       24.31        7.87        7.87        7.87
(Free)E + p*V (eV/cell)     -863.9007
Target enthalpy (eV/cell)     -861.3668

siesta: Stress tensor (static) (eV/Ang**3):
         0.015173    0.004912    0.004912
         0.004912    0.015173    0.004912
         0.004912    0.004912    0.015173

siesta: Pressure (static):        -24.30986585  kBar

siesta: Stress tensor (total) (eV/Ang**3):
         0.015173    0.004912    0.004912
         0.004912    0.015173    0.004912
         0.004912    0.004912    0.015173

siesta: Pressure (total):        -24.30986585  kBar

mulliken: Mulliken Atomic and Orbital Populations:

Species: Si                  
Atom  Qatom  Qorb
               3s      3s      3py     3pz     3px     3py     3pz     3px     
               3Pdxy   3Pdyz   3Pdz2   3Pdxz   3Pdx2-y2
   1  4.001   0.681   0.553   0.263   0.263   0.263   0.496   0.496   0.496
              0.117   0.117   0.070   0.117   0.070
   2  4.029   0.561   0.612   0.216   0.216   0.216   0.549   0.549   0.549
              0.131   0.131   0.084   0.131   0.084
   3  3.995   0.646   0.568   0.247   0.232   0.247   0.513   0.522   0.513
              0.120   0.121   0.075   0.121   0.072
   4  3.995   0.689   0.548   0.249   0.295   0.249   0.504   0.471   0.504
              0.121   0.114   0.066   0.114   0.072
   5  3.995   0.646   0.568   0.232   0.247   0.247   0.522   0.513   0.513
              0.121   0.121   0.073   0.120   0.075
   6  3.995   0.689   0.548   0.295   0.249   0.249   0.471   0.504   0.504
              0.114   0.114   0.071   0.121   0.068
   7  3.995   0.646   0.568   0.247   0.247   0.232   0.513   0.513   0.522
              0.121   0.120   0.073   0.121   0.075
   8  3.995   0.689   0.548   0.249   0.249   0.295   0.504   0.504   0.471
              0.114   0.121   0.071   0.114   0.068

mulliken: Qtot =       32.000

* Maximum dynamic memory allocated =   184 MB

siesta:                 ==============================
                            Begin CG move =      8
                        ==============================

outcoor: Atomic coordinates (Ang):                          
    0.11230538    0.11230531    0.11230455   1       1  Si
    1.48767605    1.48767604    1.48767624   1       2  Si
    2.80752604    2.80752596    0.12858272   1       3  Si
    4.14881292    4.14881301    1.48365234   1       4  Si
    2.80752623    0.12858334    2.80752629   1       5  Si
    4.14881245    1.48365212    4.14881274   1       6  Si
    0.12858341    2.80752625    2.80752635   1       7  Si
    1.48365214    4.14881232    4.14881273   1       8  Si
 Kpoints in:  108 . Kpoints trimmed:  108

siesta: k-grid: Number of k-points =   108
siesta: k-grid: Cutoff (effective) =    16.232 Ang
siesta: k-grid: Supercell and displacements
siesta: k-grid:    6   0   0      0.500
siesta: k-grid:    0   6   0      0.500
siesta: k-grid:    0   0   6      0.500
Naive supercell factors:     5    5    5

superc: Internal auxiliary supercell:     5 x     5 x     5  =     125
superc: Number of atoms, orbitals, and projectors:   1000  13000  16000

outcell: Unit cell vectors (Ang):
        5.410184   -0.055589   -0.055590
       -0.055589    5.410184   -0.055590
       -0.055590   -0.055590    5.410184

outcell: Cell vector modules (Ang)   :    5.410755    5.410755    5.410756
outcell: Cell angles (23,13,12) (deg):     91.1712     91.1712     91.1712
outcell: Cell volume (Ang**3)        :    158.3061
New_DM. Step:     9
Re-using DM from previous geometry...
Re-using DM without extrapolation (not allowed)
Density Matrix sparsity pattern changed.

InitMesh: MESH =    48 x    48 x    48 =      110592
InitMesh: Mesh cutoff (required, used) =   180.000   217.690 Ry

siesta: iscf   Eharris(eV)      E_KS(eV)   FreeEng(eV)   dDmax  Ef(eV)
siesta:    1     -861.8904     -863.0744     -863.0746  0.0467 -5.3821
siesta:    2     -862.0713     -861.7023     -861.7023  0.0800 -5.3863
siesta:    3     -861.8267     -861.9878     -861.9878  0.0122 -5.3756
siesta:    4     -861.8258     -861.7865     -861.7865  0.0034 -5.3722
siesta:    5     -861.8257     -861.7949     -861.7949  0.0021 -5.3725
siesta:    6     -861.8258     -861.8178     -861.8178  0.0004 -5.3730

siesta: E_KS(eV) =             -861.8230

siesta: Atomic forces (eV/Ang):
----------------------------------------
   Tot    0.001501    0.001503    0.001497
----------------------------------------
   Max    0.611449
   Res    0.351324    sqrt( Sum f_i^2 / 3N )
----------------------------------------
   Max    0.611449    constrained

Stress-tensor-Voigt (kbar):      -17.05      -17.05      -17.05       -9.92       -9.92       -9.92
(Free)E + p*V (eV/cell)     -860.1383
Target enthalpy (eV/cell)     -861.8230

siesta: Stress tensor (static) (eV/Ang**3):
        -0.010642   -0.006190   -0.006190
        -0.006190   -0.010642   -0.006190
        -0.006190   -0.006190   -0.010642

siesta: Pressure (static):         17.05081201  kBar

siesta: Stress tensor (total) (eV/Ang**3):
        -0.010642   -0.006190   -0.006190
        -0.006190   -0.010642   -0.006190
        -0.006190   -0.006190   -0.010642

siesta: Pressure (total):         17.05081201  kBar

mulliken: Mulliken Atomic and Orbital Populations:

Species: Si                  
Atom  Qatom  Qorb
               3s      3s      3py     3pz     3px     3py     3pz     3px     
               3Pdxy   3Pdyz   3Pdz2   3Pdxz   3Pdx2-y2
   1  3.995   0.673   0.554   0.229   0.229   0.229   0.524   0.524   0.524
              0.121   0.121   0.073   0.121   0.073
   2  4.005   0.602   0.589   0.197   0.197   0.197   0.558   0.558   0.558
              0.130   0.130   0.080   0.130   0.080
   3  4.002   0.607   0.586   0.208   0.177   0.208   0.549   0.568   0.549
              0.128   0.131   0.083   0.131   0.078
   4  3.998   0.631   0.575   0.205   0.213   0.205   0.546   0.540   0.546
              0.128   0.126   0.077   0.126   0.078
   5  4.002   0.607   0.586   0.177   0.208   0.208   0.568   0.549   0.549
              0.131   0.131   0.079   0.128   0.081
   6  3.998   0.631   0.575   0.213   0.205   0.205   0.540   0.546   0.546
              0.126   0.126   0.078   0.128   0.077
   7  4.002   0.607   0.586   0.208   0.208   0.177   0.549   0.549   0.568
              0.131   0.128   0.079   0.131   0.081
   8  3.998   0.631   0.575   0.205   0.205   0.213   0.546   0.546   0.540
              0.126   0.128   0.078   0.126   0.077

mulliken: Qtot =       32.000

cgvc: Finished line minimization    2.  Mean atomic displacement =    0.1834

* Maximum dynamic memory allocated =   184 MB

siesta:                 ==============================
                            Begin CG move =      9
                        ==============================

outcoor: Atomic coordinates (Ang):                          
    0.13893363    0.13893346    0.13893486   1       1  Si
    1.44523272    1.44523263    1.44523217   1       2  Si
    2.90719095    2.90719080    0.15041110   1       3  Si
    4.28556509    4.28556465    1.47422027   1       4  Si
    2.90718983    0.15040944    2.90719044   1       5  Si
    4.28556448    1.47422162    4.28556444   1       6  Si
    0.15040860    2.90719020    2.90719055   1       7  Si
    1.47422185    4.28556456    4.28556443   1       8  Si
 Kpoints in:  108 . Kpoints trimmed:  108

siesta: k-grid: Number of k-points =   108
siesta: k-grid: Cutoff (effective) =    16.465 Ang
siesta: k-grid: Supercell and displacements
siesta: k-grid:    6   0   0      0.500
siesta: k-grid:    0   6   0      0.500
siesta: k-grid:    0   0   6      0.500
Naive supercell factors:     5    5    5

superc: Internal auxiliary supercell:     5 x     5 x     5  =     125
superc: Number of atoms, orbitals, and projectors:   1000  13000  16000

outcell: Unit cell vectors (Ang):
        5.488278   -0.022045   -0.022045
       -0.022045    5.488278   -0.022045
       -0.022045   -0.022045    5.488278

outcell: Cell vector modules (Ang)   :    5.488366    5.488366    5.488367
outcell: Cell angles (23,13,12) (deg):     90.4593     90.4593     90.4594
outcell: Cell volume (Ang**3)        :    165.3055
New_DM. Step:    10
Re-using DM from previous geometry...
Re-using DM without extrapolation (not allowed)
Density Matrix sparsity pattern changed.

InitMesh: MESH =    48 x    48 x    48 =      110592
InitMesh: Mesh cutoff (required, used) =   180.000   211.424 Ry

siesta: iscf   Eharris(eV)      E_KS(eV)   FreeEng(eV)   dDmax  Ef(eV)
siesta:    1     -862.0169     -860.4381     -860.4381  0.0437 -5.2845
siesta:    2     -863.0374     -861.0922     -861.0922  0.2028 -5.3636
siesta:    3     -861.7127     -861.0463     -861.0463  0.0354 -5.3121
siesta:    4     -861.7127     -861.5339     -861.5339  0.0066 -5.3144
siesta:    5     -861.7123     -861.6186     -861.6186  0.0019 -5.3136
siesta:    6     -861.7123     -861.6636     -861.6636  0.0008 -5.3133

siesta: E_KS(eV) =             -861.6944

siesta: Atomic forces (eV/Ang):
----------------------------------------
   Tot    0.000885    0.000897    0.000918
----------------------------------------
   Max    1.213789
   Res    0.604642    sqrt( Sum f_i^2 / 3N )
----------------------------------------
   Max    1.213789    constrained

Stress-tensor-Voigt (kbar):       18.43       18.43       18.43      -13.10      -13.10      -13.10
(Free)E + p*V (eV/cell)     -863.5956
Target enthalpy (eV/cell)     -861.6944

siesta: Stress tensor (static) (eV/Ang**3):
         0.011501   -0.008176   -0.008176
        -0.008176    0.011501   -0.008176
        -0.008176   -0.008176    0.011500

siesta: Pressure (static):        -18.42650120  kBar

siesta: Stress tensor (total) (eV/Ang**3):
         0.011501   -0.008176   -0.008176
        -0.008176    0.011501   -0.008176
        -0.008176   -0.008176    0.011500

siesta: Pressure (total):        -18.42650120  kBar

mulliken: Mulliken Atomic and Orbital Populations:

Species: Si                  
Atom  Qatom  Qorb
               3s      3s      3py     3pz     3px     3py     3pz     3px     
               3Pdxy   3Pdyz   3Pdz2   3Pdxz   3Pdx2-y2
   1  4.017   0.560   0.611   0.197   0.197   0.197   0.562   0.562   0.562
              0.133   0.133   0.084   0.133   0.084
   2  4.000   0.672   0.555   0.251   0.251   0.251   0.508   0.508   0.508
              0.118   0.118   0.071   0.118   0.071
   3  3.997   0.683   0.549   0.239   0.289   0.239   0.513   0.479   0.513
              0.122   0.115   0.066   0.115   0.074
   4  3.997   0.646   0.567   0.238   0.229   0.238   0.520   0.527   0.520
              0.121   0.122   0.075   0.122   0.073
   5  3.997   0.683   0.549   0.289   0.239   0.239   0.479   0.513   0.513
              0.115   0.115   0.072   0.122   0.068
   6  3.997   0.646   0.567   0.229   0.238   0.238   0.527   0.520   0.520
              0.122   0.122   0.073   0.121   0.074
   7  3.997   0.683   0.549   0.239   0.239   0.289   0.513   0.513   0.479
              0.115   0.122   0.072   0.115   0.068
   8  3.997   0.646   0.567   0.238   0.238   0.229   0.520   0.520   0.527
              0.122   0.121   0.073   0.122   0.074

mulliken: Qtot =       32.000

* Maximum dynamic memory allocated =   184 MB

siesta:                 ==============================
                            Begin CG move =     10
                        ==============================

outcoor: Atomic coordinates (Ang):                          
    0.12269974    0.12269963    0.12269972   1       1  Si
    1.47139952    1.47139948    1.47139942   1       2  Si
    2.84682084    2.84682073    0.13716315   1       3  Si
    4.20289383    4.20289371    1.48008609   1       4  Si
    2.84682053    0.13716288    2.84682080   1       5  Si
    4.20289330    1.48008649    4.20289346   1       6  Si
    0.13716259    2.84682068    2.84682088   1       7  Si
    1.48008658    4.20289325    4.20289345   1       8  Si
 Kpoints in:  108 . Kpoints trimmed:  108

siesta: k-grid: Number of k-points =   108
siesta: k-grid: Cutoff (effective) =    16.324 Ang
siesta: k-grid: Supercell and displacements
siesta: k-grid:    6   0   0      0.500
siesta: k-grid:    0   6   0      0.500
siesta: k-grid:    0   0   6      0.500
Naive supercell factors:     5    5    5

superc: Internal auxiliary supercell:     5 x     5 x     5  =     125
superc: Number of atoms, orbitals, and projectors:   1000  13000  16000

outcell: Unit cell vectors (Ang):
        5.441109   -0.042306   -0.042306
       -0.042306    5.441109   -0.042306
       -0.042306   -0.042306    5.441109

outcell: Cell vector modules (Ang)   :    5.441438    5.441438    5.441438
outcell: Cell angles (23,13,12) (deg):     90.8874     90.8874     90.8874
outcell: Cell volume (Ang**3)        :    161.0583
New_DM. Step:    11
Re-using DM from previous geometry...
Re-using DM without extrapolation (not allowed)
Density Matrix sparsity pattern changed.

InitMesh: MESH =    48 x    48 x    48 =      110592
InitMesh: Mesh cutoff (required, used) =   180.000   215.163 Ry

siesta: iscf   Eharris(eV)      E_KS(eV)   FreeEng(eV)   dDmax  Ef(eV)
siesta:    1     -862.0372     -862.4771     -862.4771  0.0249 -5.3598
siesta:    2     -862.3620     -861.7270     -861.7270  0.0971 -5.3624
siesta:    3     -861.9356     -862.0570     -862.0570  0.0185 -5.3462
siesta:    4     -861.9353     -861.8924     -861.8924  0.0020 -5.3419
siesta:    5     -861.9353     -861.9015     -861.9015  0.0013 -5.3423
siesta:    6     -861.9353     -861.9245     -861.9245  0.0003 -5.3430

siesta: E_KS(eV) =             -861.9307

siesta: Atomic forces (eV/Ang):
----------------------------------------
   Tot   -0.000941   -0.000938   -0.000937
----------------------------------------
   Max    0.114699
   Res    0.059407    sqrt( Sum f_i^2 / 3N )
----------------------------------------
   Max    0.114699    constrained

Stress-tensor-Voigt (kbar):       -0.51       -0.51       -0.51      -11.54      -11.54      -11.54
(Free)E + p*V (eV/cell)     -861.8798
Target enthalpy (eV/cell)     -861.9307

siesta: Stress tensor (static) (eV/Ang**3):
        -0.000317   -0.007205   -0.007205
        -0.007205   -0.000317   -0.007205
        -0.007205   -0.007205   -0.000317

siesta: Pressure (static):          0.50720341  kBar

siesta: Stress tensor (total) (eV/Ang**3):
        -0.000317   -0.007205   -0.007205
        -0.007205   -0.000317   -0.007205
        -0.007205   -0.007205   -0.000317

siesta: Pressure (total):          0.50720341  kBar

mulliken: Mulliken Atomic and Orbital Populations:

Species: Si                  
Atom  Qatom  Qorb
               3s      3s      3py     3pz     3px     3py     3pz     3px     
               3Pdxy   3Pdyz   3Pdz2   3Pdxz   3Pdx2-y2
   1  4.002   0.630   0.575   0.218   0.218   0.218   0.538   0.538   0.538
              0.125   0.125   0.077   0.125   0.077
   2  4.000   0.633   0.573   0.216   0.216   0.216   0.539   0.539   0.539
              0.126   0.126   0.076   0.126   0.076
   3  3.999   0.639   0.570   0.218   0.223   0.218   0.536   0.533   0.536
              0.125   0.125   0.075   0.125   0.076
   4  4.000   0.638   0.571   0.220   0.220   0.220   0.535   0.535   0.535
              0.125   0.124   0.076   0.124   0.076
   5  3.999   0.639   0.570   0.223   0.218   0.218   0.533   0.536   0.536
              0.125   0.125   0.076   0.125   0.075
   6  4.000   0.638   0.571   0.220   0.220   0.220   0.535   0.535   0.535
              0.124   0.124   0.076   0.125   0.076
   7  3.999   0.639   0.570   0.218   0.218   0.223   0.536   0.536   0.533
              0.125   0.125   0.076   0.125   0.075
   8  4.000   0.638   0.571   0.220   0.220   0.220   0.535   0.535   0.535
              0.124   0.125   0.076   0.124   0.076

mulliken: Qtot =       32.000

cgvc: Finished line minimization    3.  Mean atomic displacement =    0.0726

* Maximum dynamic memory allocated =   184 MB

siesta:                 ==============================
                            Begin CG move =     11
                        ==============================

outcoor: Atomic coordinates (Ang):                          
    0.13618559    0.13618570    0.13618415   1       1  Si
    1.51344129    1.51344202    1.51344028   1       2  Si
    2.89144436    2.89144407    0.16275031   1       3  Si
    4.25685439    4.25685523    1.56401458   1       4  Si
    2.89144559    0.16275204    2.89144482   1       5  Si
    4.25685409    1.56401240    4.25685508   1       6  Si
    0.16275274    2.89144529    2.89144539   1       7  Si
    1.56401259    4.25685385    4.25685469   1       8  Si
 Kpoints in:  108 . Kpoints trimmed:  108

siesta: k-grid: Number of k-points =   108
siesta: k-grid: Cutoff (effective) =    16.351 Ang
siesta: k-grid: Supercell and displacements
siesta: k-grid:    0   0   6      0.500
siesta: k-grid:    6   0   0      0.500
siesta: k-grid:    0   6   0      0.500
Naive supercell factors:     5    5    5

superc: Internal auxiliary supercell:     5 x     5 x     5  =     125
superc: Number of atoms, orbitals, and projectors:   1000  13000  16000

outcell: Unit cell vectors (Ang):
        5.450180    0.009230    0.009230
        0.009230    5.450180    0.009230
        0.009230    0.009230    5.450180

outcell: Cell vector modules (Ang)   :    5.450195    5.450196    5.450195
outcell: Cell angles (23,13,12) (deg):     89.8058     89.8058     89.8058
outcell: Cell volume (Ang**3)        :    161.8933
New_DM. Step:    12
Re-using DM from previous geometry...
Re-using DM without extrapolation (not allowed)
Density Matrix sparsity pattern changed.

InitMesh: MESH =    48 x    48 x    48 =      110592
InitMesh: Mesh cutoff (required, used) =   180.000   214.373 Ry

siesta: iscf   Eharris(eV)      E_KS(eV)   FreeEng(eV)   dDmax  Ef(eV)
siesta:    1     -861.9511     -861.7668     -861.7668  0.0198 -5.3080
siesta:    2     -861.9824     -861.9203     -861.9203  0.0255 -5.3255
siesta:    3     -861.9409     -861.9050     -861.9050  0.0037 -5.3156
siesta:    4     -861.9408     -861.9332     -861.9332  0.0003 -5.3154

siesta: E_KS(eV) =             -861.9355

siesta: Atomic forces (eV/Ang):
----------------------------------------
   Tot    0.000172    0.000168    0.000173
----------------------------------------
   Max    0.427526
   Res    0.224429    sqrt( Sum f_i^2 / 3N )
----------------------------------------
   Max    0.427526    constrained

Stress-tensor-Voigt (kbar):        3.51        3.51        3.51        7.40        7.40        7.40
(Free)E + p*V (eV/cell)     -862.2897
Target enthalpy (eV/cell)     -861.9355

siesta: Stress tensor (static) (eV/Ang**3):
         0.002188    0.004620    0.004619
         0.004620    0.002188    0.004619
         0.004619    0.004619    0.002188

siesta: Pressure (static):         -3.50521562  kBar

siesta: Stress tensor (total) (eV/Ang**3):
         0.002188    0.004620    0.004619
         0.004620    0.002188    0.004619
         0.004619    0.004619    0.002188

siesta: Pressure (total):         -3.50521562  kBar

mulliken: Mulliken Atomic and Orbital Populations:

Species: Si                  
Atom  Qatom  Qorb
               3s      3s      3py     3pz     3px     3py     3pz     3px     
               3Pdxy   3Pdyz   3Pdz2   3Pdxz   3Pdx2-y2
   1  3.999   0.649   0.565   0.227   0.227   0.227   0.529   0.529   0.529
              0.123   0.123   0.074   0.123   0.074
   2  3.999   0.659   0.560   0.232   0.232   0.232   0.524   0.524   0.524
              0.122   0.122   0.073   0.122   0.073
   3  4.000   0.637   0.571   0.224   0.219   0.224   0.533   0.536   0.533
              0.124   0.124   0.076   0.124   0.075
   4  4.000   0.634   0.572   0.224   0.212   0.224   0.533   0.541   0.533
              0.124   0.125   0.077   0.125   0.075
   5  4.000   0.637   0.571   0.219   0.224   0.224   0.536   0.533   0.533
              0.124   0.124   0.075   0.124   0.076
   6  4.000   0.634   0.572   0.212   0.224   0.224   0.541   0.533   0.533
              0.125   0.125   0.075   0.124   0.076
   7  4.000   0.637   0.571   0.224   0.224   0.219   0.533   0.533   0.536
              0.124   0.124   0.075   0.124   0.076
   8  4.000   0.634   0.572   0.224   0.224   0.212   0.533   0.533   0.541
              0.125   0.124   0.075   0.125   0.076

mulliken: Qtot =       32.000

* Maximum dynamic memory allocated =   184 MB

siesta:                 ==============================
                            Begin CG move =     12
                        ==============================

outcoor: Atomic coordinates (Ang):                          
    0.12946314    0.12946315    0.12946241   1       1  Si
    1.49260109    1.49260144    1.49260054   1       2  Si
    2.86942392    2.86942372    0.15006208   1       3  Si
    4.23020001    4.23020038    1.52256342   1       4  Si
    2.86942438    0.15006281    2.86942412   1       5  Si
    4.23019960    1.52256251    4.23020018   1       6  Si
    0.15006302    2.86942430    2.86942445   1       7  Si
    1.52256266    4.23019946    4.23019998   1       8  Si
 Kpoints in:  108 . Kpoints trimmed:  108

siesta: k-grid: Number of k-points =   108
siesta: k-grid: Cutoff (effective) =    16.337 Ang
siesta: k-grid: Supercell and displacements
siesta: k-grid:    6   0   0      0.500
siesta: k-grid:    0   6   0      0.500
siesta: k-grid:    0   0   6      0.500
Naive supercell factors:     5    5    5

superc: Internal auxiliary supercell:     5 x     5 x     5  =     125
superc: Number of atoms, orbitals, and projectors:   1000  13000  16000

outcell: Unit cell vectors (Ang):
        5.445696   -0.016246   -0.016246
       -0.016246    5.445696   -0.016246
       -0.016246   -0.016246    5.445696

outcell: Cell vector modules (Ang)   :    5.445744    5.445744    5.445744
outcell: Cell angles (23,13,12) (deg):     90.3413     90.3413     90.3413
outcell: Cell volume (Ang**3)        :    161.4911
New_DM. Step:    13
Re-using DM from previous geometry...
Re-using DM without extrapolation (not allowed)
Density Matrix sparsity pattern changed.

InitMesh: MESH =    48 x    48 x    48 =      110592
InitMesh: Mesh cutoff (required, used) =   180.000   214.734 Ry

siesta: iscf   Eharris(eV)      E_KS(eV)   FreeEng(eV)   dDmax  Ef(eV)
siesta:    1     -861.9602     -862.0153     -862.0153  0.0070 -5.3221
siesta:    2     -861.9676     -861.9528     -861.9528  0.0129 -5.3179
siesta:    3     -861.9577     -861.9645     -861.9645  0.0018 -5.3197
siesta:    4     -861.9577     -861.9558     -861.9558  0.0002 -5.3196

siesta: E_KS(eV) =             -861.9563

siesta: Atomic forces (eV/Ang):
----------------------------------------
   Tot    0.002547    0.002549    0.002560
----------------------------------------
   Max    0.188141
   Res    0.108820    sqrt( Sum f_i^2 / 3N )
----------------------------------------
   Max    0.188141    constrained

Stress-tensor-Voigt (kbar):        2.25        2.25        2.25       -1.68       -1.68       -1.68
(Free)E + p*V (eV/cell)     -862.1829
Target enthalpy (eV/cell)     -861.9563

siesta: Stress tensor (static) (eV/Ang**3):
         0.001403   -0.001049   -0.001049
        -0.001049    0.001403   -0.001049
        -0.001049   -0.001049    0.001403

siesta: Pressure (static):         -2.24803326  kBar

siesta: Stress tensor (total) (eV/Ang**3):
         0.001403   -0.001049   -0.001049
        -0.001049    0.001403   -0.001049
        -0.001049   -0.001049    0.001403

siesta: Pressure (total):         -2.24803326  kBar

mulliken: Mulliken Atomic and Orbital Populations:

Species: Si                  
Atom  Qatom  Qorb
               3s      3s      3py     3pz     3px     3py     3pz     3px     
               3Pdxy   3Pdyz   3Pdz2   3Pdxz   3Pdx2-y2
   1  4.000   0.640   0.569   0.222   0.222   0.222   0.534   0.534   0.534
              0.124   0.124   0.075   0.124   0.075
   2  3.999   0.646   0.566   0.225   0.225   0.225   0.531   0.531   0.531
              0.124   0.124   0.075   0.124   0.075
   3  4.000   0.638   0.570   0.221   0.221   0.221   0.534   0.535   0.534
              0.124   0.124   0.075   0.124   0.075
   4  4.000   0.637   0.571   0.222   0.217   0.222   0.534   0.538   0.534
              0.124   0.125   0.076   0.125   0.075
   5  4.000   0.638   0.570   0.221   0.221   0.221   0.535   0.534   0.534
              0.124   0.124   0.075   0.124   0.075
   6  4.000   0.637   0.571   0.217   0.222   0.222   0.538   0.534   0.534
              0.125   0.125   0.076   0.124   0.076
   7  4.000   0.638   0.570   0.221   0.221   0.221   0.534   0.534   0.535
              0.124   0.124   0.075   0.124   0.075
   8  4.000   0.637   0.571   0.222   0.222   0.217   0.534   0.534   0.538
              0.125   0.124   0.076   0.125   0.076

mulliken: Qtot =       32.000

cgvc: Finished line minimization    4.  Mean atomic displacement =    0.0367

* Maximum dynamic memory allocated =   184 MB

siesta:                 ==============================
                            Begin CG move =     13
                        ==============================

outcoor: Atomic coordinates (Ang):                          
    0.14388913    0.14388943    0.14388944   1       1  Si
    1.50967751    1.50967783    1.50967740   1       2  Si
    2.88878250    2.88878244    0.17371258   1       3  Si
    4.24570228    4.24570237    1.54486384   1       4  Si
    2.88878274    0.17371324    2.88878281   1       5  Si
    4.24570181    1.54486284    4.24570201   1       6  Si
    0.17371331    2.88878305    2.88878325   1       7  Si
    1.54486318    4.24570179    4.24570193   1       8  Si
 Kpoints in:  108 . Kpoints trimmed:  108

siesta: k-grid: Number of k-points =   108
siesta: k-grid: Cutoff (effective) =    16.340 Ang
siesta: k-grid: Supercell and displacements
siesta: k-grid:    6   0   0      0.500
siesta: k-grid:    0   0   6      0.500
siesta: k-grid:    0   6   0      0.500
Naive supercell factors:     5    5    5

superc: Internal auxiliary supercell:     5 x     5 x     5  =     125
superc: Number of atoms, orbitals, and projectors:   1000  13000  16000

outcell: Unit cell vectors (Ang):
        5.446513    0.006101    0.006101
        0.006101    5.446513    0.006101
        0.006101    0.006101    5.446513

outcell: Cell vector modules (Ang)   :    5.446520    5.446520    5.446520
outcell: Cell angles (23,13,12) (deg):     89.8716     89.8716     89.8716
outcell: Cell volume (Ang**3)        :    161.5675
New_DM. Step:    14
Re-using DM from previous geometry...
Re-using DM without extrapolation (not allowed)
Density Matrix sparsity pattern changed.

InitMesh: MESH =    48 x    48 x    48 =      110592
InitMesh: Mesh cutoff (required, used) =   180.000   214.660 Ry

siesta: iscf   Eharris(eV)      E_KS(eV)   FreeEng(eV)   dDmax  Ef(eV)
siesta:    1     -861.9679     -861.9406     -861.9406  0.0196 -5.3337
siesta:    2     -861.9684     -861.9664     -861.9664  0.0051 -5.3339
siesta:    3     -861.9672     -861.9662     -861.9662  0.0005 -5.3336

siesta: E_KS(eV) =             -861.9668

siesta: Atomic forces (eV/Ang):
----------------------------------------
   Tot    0.000106    0.000102    0.000101
----------------------------------------
   Max    0.095814
   Res    0.057653    sqrt( Sum f_i^2 / 3N )
----------------------------------------
   Max    0.095814    constrained

Stress-tensor-Voigt (kbar):        2.41        2.41        2.41        1.27        1.27        1.27
(Free)E + p*V (eV/cell)     -862.2101
Target enthalpy (eV/cell)     -861.9668

siesta: Stress tensor (static) (eV/Ang**3):
         0.001505    0.000794    0.000794
         0.000794    0.001505    0.000794
         0.000794    0.000794    0.001506

siesta: Pressure (static):         -2.41209680  kBar

siesta: Stress tensor (total) (eV/Ang**3):
         0.001505    0.000794    0.000794
         0.000794    0.001505    0.000794
         0.000794    0.000794    0.001506

siesta: Pressure (total):         -2.41209680  kBar

mulliken: Mulliken Atomic and Orbital Populations:

Species: Si                  
Atom  Qatom  Qorb
               3s      3s      3py     3pz     3px     3py     3pz     3px     
               3Pdxy   3Pdyz   3Pdz2   3Pdxz   3Pdx2-y2
   1  4.000   0.645   0.567   0.225   0.225   0.225   0.531   0.531   0.531
              0.124   0.124   0.075   0.124   0.075
   2  3.999   0.647   0.566   0.225   0.225   0.225   0.531   0.531   0.531
              0.123   0.123   0.074   0.123   0.074
   3  4.000   0.637   0.571   0.222   0.218   0.222   0.534   0.537   0.534
              0.124   0.125   0.076   0.125   0.075
   4  4.000   0.637   0.571   0.222   0.217   0.222   0.535   0.538   0.535
              0.124   0.125   0.076   0.125   0.075
   5  4.000   0.637   0.571   0.218   0.222   0.222   0.537   0.534   0.534
              0.125   0.125   0.075   0.124   0.076
   6  4.000   0.637   0.571   0.217   0.222   0.222   0.538   0.535   0.535
              0.125   0.125   0.075   0.124   0.076
   7  4.000   0.637   0.571   0.222   0.222   0.218   0.534   0.534   0.537
              0.125   0.124   0.075   0.125   0.076
   8  4.000   0.637   0.571   0.222   0.222   0.217   0.535   0.535   0.538
              0.125   0.124   0.075   0.125   0.076

mulliken: Qtot =       32.000

* Maximum dynamic memory allocated =   184 MB

siesta:                 ==============================
                            Begin CG move =     14
                        ==============================

outcoor: Atomic coordinates (Ang):                          
    0.14363037    0.14363066    0.14363066   1       1  Si
    1.50937285    1.50937317    1.50937273   1       2  Si
    2.88843739    2.88843733    0.17329062   1       3  Si
    4.24542788    4.24542797    1.54446815   1       4  Si
    2.88843764    0.17329129    2.88843770   1       5  Si
    4.24542742    1.54446716    4.24542761   1       6  Si
    0.17329135    2.88843794    2.88843814   1       7  Si
    1.54446749    4.24542739    4.24542754   1       8  Si
 Kpoints in:  108 . Kpoints trimmed:  108

siesta: k-grid: Number of k-points =   108
siesta: k-grid: Cutoff (effective) =    16.340 Ang
siesta: k-grid: Supercell and displacements
siesta: k-grid:    6   0   0      0.500
siesta: k-grid:    0   0   6      0.500
siesta: k-grid:    0   6   0      0.500
Naive supercell factors:     5    5    5

superc: Internal auxiliary supercell:     5 x     5 x     5  =     125
superc: Number of atoms, orbitals, and projectors:   1000  13000  16000

outcell: Unit cell vectors (Ang):
        5.446498    0.005703    0.005703
        0.005703    5.446499    0.005703
        0.005703    0.005703    5.446499

outcell: Cell vector modules (Ang)   :    5.446504    5.446505    5.446505
outcell: Cell angles (23,13,12) (deg):     89.8800     89.8800     89.8800
outcell: Cell volume (Ang**3)        :    161.5663
New_DM. Step:    15
Re-using DM from previous geometry...
Re-using DM without extrapolation (not allowed)
Density Matrix sparsity pattern changed.

InitMesh: MESH =    48 x    48 x    48 =      110592
InitMesh: Mesh cutoff (required, used) =   180.000   214.661 Ry

siesta: iscf   Eharris(eV)      E_KS(eV)   FreeEng(eV)   dDmax  Ef(eV)
siesta:    1     -861.9672     -861.9670     -861.9670  0.0003 -5.3340

siesta: E_KS(eV) =             -861.9672

siesta: Atomic forces (eV/Ang):
----------------------------------------
   Tot   -0.000734   -0.000733   -0.000734
----------------------------------------
   Max    0.092842
[...]
         10.41  11.01  11.06  11.31  11.46  11.75  12.03  12.44  13.02  13.36
         14.09  14.32  14.54  14.64  14.69  15.69  16.18  16.43  16.48  17.18
         17.72  17.86  18.74  18.93  19.48  20.80  21.91  22.32  23.27  23.44
         23.84  24.03  24.81  25.19  26.48  26.61  32.97  37.82  39.09  41.26
         44.12  54.56  54.67  56.92  58.65  64.10  65.83  67.83  67.98  69.21
         73.45  86.54  89.22  90.71
  93  1 -16.58 -15.90 -14.72 -14.37 -12.51 -12.12 -10.68  -9.96  -9.68  -9.63
         -8.57  -8.34  -8.12  -7.86  -7.61  -6.66  -3.53  -3.51  -3.03  -2.40
         -2.16  -1.89  -1.86  -1.07  -1.04  -0.88  -0.65  -0.53   0.45   0.46
          1.13   1.90   1.92   1.96   2.55   3.47   3.93   3.97   4.59   5.57
          5.67   5.69   7.47   7.83   8.20   8.48   8.90   9.27   9.49  10.14
         10.41  10.99  11.06  11.31  11.45  11.76  12.04  12.42  13.02  13.34
         14.10  14.30  14.54  14.64  14.69  15.72  16.20  16.44  16.47  17.18
         17.71  17.87  18.74  18.94  19.49  20.81  21.91  22.30  23.28  23.44
         23.85  24.03  24.80  25.21  26.47  26.62  33.05  37.81  39.09  41.22
         44.29  54.39  54.64  56.87  58.61  64.16  65.83  67.84  68.04  69.27
         73.49  86.58  89.27  90.67
  94  1 -16.37 -15.72 -14.80 -14.79 -12.45 -12.45 -11.39 -10.58  -9.19  -9.18
         -8.14  -7.85  -7.84  -7.52  -7.00  -6.97  -3.64  -3.40  -3.27  -3.27
         -2.32  -1.69  -1.68  -1.50  -1.39  -0.68  -0.54   0.32   0.33   0.45
          0.69   0.69   2.74   2.75   3.23   3.25   4.78   4.91   5.05   5.33
          5.40   5.40   6.45   6.45   7.24   8.12   8.79   9.15   9.16   9.18
          9.32   9.34  11.09  11.42  11.42  11.80  13.09  13.33  13.51  13.52
         13.63  14.77  15.03  15.04  16.23  16.23  16.68  16.73  17.27  17.49
         17.51  17.92  17.92  19.28  19.29  19.31  20.91  22.27  22.43  23.97
         24.62  24.62  25.47  27.50  28.13  28.14  32.70  33.52  36.53  36.53
         41.86  49.41  56.23  56.26  57.29  62.29  64.34  68.95  68.95  70.16
         81.64  86.92  86.99  94.75
  95  1 -15.97 -15.40 -15.40 -15.03 -12.48 -12.08 -12.08 -11.43  -8.70  -8.27
         -8.27  -7.55  -7.29  -7.25  -7.25  -6.68  -3.51  -3.48  -3.09  -3.08
         -2.40  -2.40  -2.02  -1.99  -1.55  -1.17  -1.04  -1.04   1.21   1.21
          2.03   2.21   2.40   3.06   3.44   3.88   3.89   4.26   4.26   4.49
          5.13   6.93   6.95   7.14   7.15   7.66   7.99   8.62   8.82   8.84
          8.97   9.23   9.30  10.08  10.52  10.52  13.86  14.11  14.11  15.10
         15.10  15.17  15.60  15.85  15.91  16.00  16.59  16.62  17.78  18.41
         18.47  18.49  19.10  19.10  19.44  19.92  20.59  20.61  21.30  21.94
         27.04  27.27  27.28  29.00  29.14  32.60  32.61  34.72  39.99  41.77
         41.80  48.15  55.76  55.84  58.68  59.66  64.98  76.57  76.59  80.89
         81.96  82.01  90.36  94.40
  96  1 -15.96 -15.41 -15.40 -15.03 -12.48 -12.08 -12.07 -11.43  -8.71  -8.28
         -8.27  -7.55  -7.29  -7.25  -7.25  -6.68  -3.52  -3.48  -3.09  -3.08
         -2.40  -2.39  -2.03  -1.99  -1.55  -1.18  -1.04  -1.03   1.22   1.23
          2.02   2.20   2.42   3.05   3.43   3.88   3.88   4.25   4.26   4.49
          5.14   6.93   6.94   7.12   7.14   7.66   8.01   8.61   8.81   8.82
          8.97   9.25   9.32  10.09  10.52  10.55  13.87  14.09  14.12  15.09
         15.10  15.17  15.61  15.87  15.90  16.00  16.59  16.60  17.77  18.42
         18.47  18.49  19.06  19.09  19.42  19.91  20.60  20.60  21.28  21.99
         27.01  27.26  27.28  29.01  29.13  32.59  32.61  34.67  40.00  41.77
         41.78  48.10  55.82  55.85  58.57  59.60  64.79  76.44  76.50  80.96
         82.00  82.05  90.41  94.09
  97  1 -15.96 -15.40 -15.40 -15.05 -12.47 -12.08 -12.08 -11.43  -8.70  -8.28
         -8.28  -7.55  -7.28  -7.25  -7.24  -6.68  -3.52  -3.47  -3.10  -3.09
         -2.40  -2.39  -2.02  -2.00  -1.54  -1.17  -1.04  -1.04   1.22   1.23
          2.03   2.21   2.41   3.05   3.43   3.88   3.89   4.24   4.24   4.48
          5.11   6.93   6.93   7.15   7.15   7.66   7.99   8.61   8.81   8.82
          8.94   9.26   9.32  10.10  10.54  10.55  13.87  14.12  14.12  15.09
         15.09  15.16  15.61  15.86  15.89  15.98  16.58  16.59  17.75  18.42
         18.48  18.48  19.10  19.10  19.43  19.90  20.59  20.59  21.29  21.96
         27.05  27.26  27.26  29.00  29.12  32.53  32.54  34.71  40.00  41.74
         41.80  48.20  55.60  55.70  58.73  59.62  64.85  76.45  76.47  80.87
         81.95  81.98  90.45  94.32
  98  1 -16.14 -15.51 -15.51 -14.98 -12.01 -11.38 -11.38 -10.57  -9.73  -9.23
         -9.23  -8.61  -7.41  -7.35  -7.34  -6.61  -3.63  -2.90  -2.69  -2.68
         -2.02  -2.02  -1.61  -1.43  -0.32  -0.31  -0.27  -0.12   0.23   0.23
          0.54   0.98   1.56   1.93   2.32   2.57   2.57   4.10   4.10   5.16
          5.75   7.70   7.70   7.98   8.55   8.55   9.38   9.56   9.78   9.89
          9.89  10.61  11.11  11.66  11.68  12.07  12.70  12.89  12.97  12.98
         13.56  13.75  13.77  14.52  15.02  15.25  15.26  15.50  17.60  18.44
         18.46  19.25  20.06  20.06  20.49  20.53  21.75  21.76  21.98  22.50
         25.47  26.06  26.23  26.23  28.00  36.08  36.09  41.26  44.78  44.82
         51.38  51.52  54.43  54.45  59.94  61.64  63.43  69.87  69.88  81.48
         81.53  82.50  85.11  88.06
  99  1 -16.14 -15.51 -15.51 -14.98 -12.01 -11.38 -11.38 -10.57  -9.74  -9.23
         -9.22  -8.61  -7.41  -7.35  -7.34  -6.61  -3.63  -2.90  -2.69  -2.68
         -2.02  -2.01  -1.61  -1.42  -0.34  -0.33  -0.28  -0.14   0.23   0.23
          0.53   0.98   1.57   1.93   2.32   2.58   2.59   4.10   4.10   5.17
          5.76   7.70   7.70   7.97   8.54   8.56   9.38   9.56   9.77   9.91
          9.91  10.60  11.12  11.66  11.67  12.06  12.71  12.88  12.93  12.94
         13.55  13.77  13.77  14.51  15.03  15.27  15.29  15.50  17.59  18.44
         18.46  19.26  20.06  20.06  20.50  20.54  21.76  21.78  21.98  22.48
         25.46  26.07  26.23  26.24  27.99  36.09  36.12  41.26  44.89  44.92
         51.39  51.54  54.42  54.45  59.93  61.60  63.47  69.96  70.07  81.50
         81.54  82.51  85.06  88.07
 100  1 -15.97 -15.40 -15.40 -15.03 -12.48 -12.08 -12.08 -11.43  -8.70  -8.27
         -8.27  -7.55  -7.29  -7.25  -7.25  -6.68  -3.51  -3.48  -3.09  -3.08
         -2.40  -2.40  -2.02  -1.99  -1.55  -1.17  -1.04  -1.04   1.21   1.21
          2.03   2.21   2.40   3.06   3.44   3.88   3.89   4.26   4.26   4.49
          5.13   6.93   6.95   7.14   7.15   7.66   7.99   8.62   8.82   8.84
          8.97   9.23   9.30  10.08  10.52  10.52  13.86  14.11  14.11  15.10
         15.10  15.17  15.60  15.85  15.91  16.00  16.59  16.62  17.78  18.41
         18.47  18.49  19.10  19.10  19.44  19.92  20.59  20.61  21.30  21.94
         27.04  27.27  27.28  29.00  29.14  32.60  32.61  34.72  39.99  41.77
         41.80  48.15  55.76  55.84  58.68  59.66  64.98  76.57  76.59  80.89
         81.96  82.01  90.36  94.40
 101  1 -15.64 -15.28 -15.26 -15.26 -12.59 -12.59 -12.58 -12.17  -7.50  -7.48
         -7.48  -7.08  -7.07  -7.07  -6.84  -6.84  -4.14  -3.68  -3.68  -3.68
         -2.32  -2.32  -2.31  -2.17  -2.17  -1.87  -1.87  -1.86   2.70   2.70
          2.70   3.12   4.00   4.00   4.04   4.04   4.06   5.03   5.34   5.34
          5.34   6.14   6.14   6.15   6.26   6.26   6.26   7.68   7.68   7.89
          7.90   7.90   8.71   8.71   8.71   8.76  15.99  16.00  16.00  16.06
         16.54  16.54  16.77  16.77  16.77  17.43  17.43  17.46  18.22  18.22
         18.22  19.05  19.05  19.07  19.46  19.46  19.50  20.10  20.10  21.95
         28.53  28.53  28.54  30.00  30.00  30.09  30.11  30.11  52.11  52.16
         52.16  56.73  61.80  61.80  61.80  71.76  71.79  71.79  74.25  74.25
         87.25  87.39  87.39 103.01
 102  1 -15.63 -15.28 -15.27 -15.26 -12.59 -12.58 -12.58 -12.18  -7.49  -7.49
         -7.48  -7.07  -7.07  -7.07  -6.84  -6.84  -4.16  -3.68  -3.68  -3.67
         -2.30  -2.30  -2.30  -2.18  -2.16  -1.88  -1.88  -1.87   2.71   2.71
          2.73   3.11   3.99   4.01   4.04   4.04   4.05   5.02   5.32   5.33
          5.33   6.11   6.12   6.13   6.25   6.26   6.26   7.67   7.70   7.90
          7.90   7.93   8.70   8.72   8.73   8.78  15.97  16.00  16.01  16.07
         16.53  16.54  16.78  16.78  16.79  17.42  17.42  17.43  18.17  18.21
         18.22  19.04  19.05  19.06  19.48  19.49  19.49  20.09  20.10  22.02
         28.48  28.49  28.52  29.93  30.01  30.12  30.13  30.14  52.14  52.18
         52.21  56.71  61.62  61.71  61.93  71.76  71.79  71.89  73.90  74.14
         87.18  87.21  87.24 102.86
 103  1 -15.96 -15.41 -15.40 -15.03 -12.48 -12.08 -12.07 -11.43  -8.71  -8.28
         -8.27  -7.55  -7.29  -7.25  -7.25  -6.68  -3.52  -3.48  -3.09  -3.08
         -2.40  -2.39  -2.03  -1.99  -1.55  -1.18  -1.04  -1.03   1.22   1.23
          2.02   2.20   2.42   3.05   3.43   3.88   3.88   4.25   4.26   4.49
          5.14   6.93   6.94   7.12   7.14   7.66   8.01   8.61   8.81   8.82
          8.97   9.25   9.32  10.09  10.52  10.55  13.87  14.09  14.12  15.09
         15.10  15.17  15.61  15.87  15.90  16.00  16.59  16.60  17.77  18.42
         18.47  18.49  19.06  19.09  19.42  19.91  20.60  20.60  21.28  21.99
         27.01  27.26  27.28  29.01  29.13  32.59  32.61  34.67  40.00  41.77
         41.78  48.10  55.82  55.85  58.57  59.60  64.79  76.44  76.50  80.96
         82.00  82.05  90.41  94.09
 104  1 -16.14 -15.52 -15.51 -14.97 -12.02 -11.38 -11.37 -10.58  -9.74  -9.23
         -9.23  -8.61  -7.41  -7.35  -7.35  -6.61  -3.63  -2.91  -2.68  -2.67
         -2.02  -2.01  -1.62  -1.43  -0.32  -0.31  -0.28  -0.13   0.23   0.24
          0.52   0.97   1.55   1.92   2.34   2.58   2.59   4.08   4.09   5.18
          5.77   7.67   7.69   7.98   8.54   8.55   9.40   9.56   9.79   9.89
          9.90  10.61  11.11  11.65  11.67  12.07  12.71  12.88  12.96  12.97
         13.56  13.75  13.76  14.52  15.02  15.27  15.27  15.51  17.62  18.43
         18.45  19.24  20.04  20.06  20.47  20.56  21.77  21.78  21.96  22.51
         25.45  26.06  26.23  26.24  28.00  36.09  36.09  41.27  44.85  44.90
         51.22  51.53  54.53  54.58  59.82  61.68  63.31  69.91  69.94  81.49
         81.56  82.55  85.10  88.09
 105  1 -16.14 -15.52 -15.51 -14.97 -12.02 -11.38 -11.37 -10.58  -9.74  -9.23
         -9.23  -8.61  -7.41  -7.35  -7.35  -6.61  -3.63  -2.91  -2.68  -2.67
         -2.02  -2.01  -1.62  -1.43  -0.32  -0.31  -0.28  -0.13   0.23   0.24
          0.52   0.97   1.55   1.92   2.34   2.58   2.59   4.08   4.09   5.18
          5.77   7.67   7.69   7.98   8.54   8.55   9.40   9.56   9.79   9.89
          9.90  10.61  11.11  11.65  11.67  12.07  12.71  12.88  12.96  12.97
         13.56  13.75  13.76  14.52  15.02  15.27  15.27  15.51  17.62  18.43
         18.45  19.24  20.04  20.06  20.47  20.56  21.77  21.78  21.96  22.51
         25.45  26.06  26.23  26.24  28.00  36.09  36.09  41.27  44.85  44.90
         51.22  51.53  54.53  54.58  59.82  61.68  63.31  69.91  69.94  81.49
         81.56  82.55  85.10  88.09
 106  1 -15.96 -15.41 -15.40 -15.03 -12.48 -12.08 -12.07 -11.43  -8.71  -8.28
         -8.27  -7.55  -7.29  -7.25  -7.25  -6.68  -3.52  -3.48  -3.09  -3.08
         -2.40  -2.39  -2.03  -1.99  -1.55  -1.18  -1.04  -1.03   1.22   1.23
          2.02   2.20   2.42   3.05   3.43   3.88   3.88   4.25   4.26   4.49
          5.14   6.93   6.94   7.12   7.14   7.66   8.01   8.61   8.81   8.82
          8.97   9.25   9.32  10.09  10.52  10.55  13.87  14.09  14.12  15.09
         15.10  15.17  15.61  15.87  15.90  16.00  16.59  16.60  17.77  18.42
         18.47  18.49  19.06  19.09  19.42  19.91  20.60  20.60  21.28  21.99
         27.01  27.26  27.28  29.01  29.13  32.59  32.61  34.67  40.00  41.77
         41.78  48.10  55.82  55.85  58.57  59.60  64.79  76.44  76.50  80.96
         82.00  82.05  90.41  94.09
 107  1 -15.63 -15.28 -15.27 -15.26 -12.59 -12.58 -12.58 -12.18  -7.49  -7.49
         -7.48  -7.07  -7.07  -7.07  -6.84  -6.84  -4.16  -3.68  -3.68  -3.67
         -2.30  -2.30  -2.30  -2.18  -2.16  -1.88  -1.88  -1.87   2.71   2.71
          2.73   3.11   3.99   4.01   4.04   4.04   4.05   5.02   5.32   5.33
          5.33   6.11   6.12   6.13   6.25   6.26   6.26   7.67   7.70   7.90
          7.90   7.93   8.70   8.72   8.73   8.78  15.97  16.00  16.01  16.07
         16.53  16.54  16.78  16.78  16.79  17.42  17.42  17.43  18.17  18.21
         18.22  19.04  19.05  19.06  19.48  19.49  19.49  20.09  20.10  22.02
         28.48  28.49  28.52  29.93  30.01  30.12  30.13  30.14  52.14  52.18
         52.21  56.71  61.62  61.71  61.93  71.76  71.79  71.89  73.90  74.14
         87.18  87.21  87.24 102.86
 108  1 -15.63 -15.28 -15.27 -15.26 -12.59 -12.58 -12.58 -12.18  -7.49  -7.49
         -7.48  -7.07  -7.07  -7.07  -6.84  -6.84  -4.16  -3.68  -3.68  -3.67
         -2.30  -2.30  -2.30  -2.18  -2.16  -1.88  -1.88  -1.87   2.71   2.71
          2.73   3.11   3.99   4.01   4.04   4.04   4.05   5.02   5.32   5.33
          5.33   6.11   6.12   6.13   6.25   6.26   6.26   7.67   7.70   7.90
          7.90   7.93   8.70   8.72   8.73   8.78  15.97  16.00  16.01  16.07
         16.53  16.54  16.78  16.78  16.79  17.42  17.42  17.43  18.17  18.21
         18.22  19.04  19.05  19.06  19.48  19.49  19.49  20.09  20.10  22.02
         28.48  28.49  28.52  29.93  30.01  30.12  30.13  30.14  52.14  52.18
         52.21  56.71  61.62  61.71  61.93  71.76  71.79  71.89  73.90  74.14
         87.18  87.21  87.24 102.86
siesta: Fermi energy =      -5.339199 eV

siesta: Program's energy decomposition (eV):
siesta: Ebs     =      -344.280443
siesta: Eions   =      1510.441798
siesta: Ena     =       465.239781
siesta: Ekin    =       325.215573
siesta: Enl     =       111.031339
siesta: DEna    =         5.078532
siesta: DUscf   =         1.529256
siesta: DUext   =         0.000000
siesta: Exc     =      -259.623615
siesta: eta*DQ  =         0.000000
siesta: Emadel  =         0.000000
siesta: Emeta   =         0.000000
siesta: Emolmec =         0.000000
siesta: Ekinion =         0.000000
siesta: Eharris =      -861.971011
siesta: Etot    =      -861.970933
siesta: FreeEng =      -861.970933

siesta: Final energy (eV):
siesta:  Band Struct. =    -344.280443
siesta:       Kinetic =     325.215573
siesta:       Hartree =      57.817772
siesta:    Ext. field =       0.000000
siesta:   Exch.-corr. =    -259.623615
siesta:  Ion-electron =    -446.615231
siesta:       Ion-ion =    -538.765430
siesta:       Ekinion =       0.000000
siesta:         Total =    -861.970933

siesta: Stress tensor (static) (eV/Ang**3):
siesta:    -0.000474    0.000578    0.000579
siesta:     0.000578   -0.000474    0.000579
siesta:     0.000579    0.000579   -0.000474

siesta: Constrained stress tensor (static) (eV/Ang**3):
siesta:    -0.000474    0.000578    0.000579
siesta:     0.000578   -0.000474    0.000579
siesta:     0.000579    0.000579   -0.000474

siesta: Cell volume =        161.015688 Ang**3

siesta: Pressure (static):
siesta:                Solid            Molecule  Units
siesta:           0.00000516          0.00000959  Ry/Bohr**3
siesta:           0.00047376          0.00088089  eV/Ang**3
siesta:           0.75905195          1.41135475  kBar
(Free)E+ p_basis*V_orbitals  =        -852.997329
(Free)Eharris+ p_basis*V_orbitals  =        -852.996820

* Maximum dynamic memory allocated : Node    0 =   184 MB

* Maximum memory occured during init_pulay_arrrays            

timer: CPU execution times:
timer:  Routine       Calls   Time/call    Tot.time        %
timer:  siesta            1    3536.142    3536.142   100.00
timer:  Setup             1       0.172       0.172     0.00
timer:  bands             3       0.558       1.674     0.05
timer:  writewave         3       0.009       0.026     0.00
timer:  KSV_init          1       0.000       0.000     0.00
timer:  IterMD           18     196.344    3534.199    99.95
timer:  hsparse          18       0.273       4.916     0.14
timer:  overlap          18       0.130       2.338     0.07
timer:  IterSCF          89      31.331    2788.465    78.86
timer:  kinefsm          36       0.135       4.842     0.14
timer:  nlefsm           36       5.230     188.262     5.32
timer:  DHSCF           107      23.639    2529.341    71.53
timer:  DHSCF1           18       0.123       2.209     0.06
timer:  DHSCF2           18       8.347     150.239     4.25
timer:  REORD           678       0.000       0.250     0.01
timer:  POISON          125       0.012       1.559     0.04
timer:  DHSCF3          107      19.437    2079.738    58.81
timer:  rhoofd          107       9.303     995.440    28.15
timer:  cellXC          107       0.078       8.388     0.24
timer:  vmat            107      10.037    1073.911    30.37
timer:  MolMec           36       0.000       0.001     0.00
timer:  diagon           89       8.938     795.472    22.50
timer:  c-eigval      11249       0.019     211.417     5.98
timer:  c-buildHS     11249       0.013     142.071     4.02
timer:  cdiag         22398       0.009     202.399     5.72
timer:  cdiag1        22398       0.001      17.940     0.51
timer:  cdiag2        22398       0.002      55.326     1.56
timer:  cdiag3        22398       0.006     125.206     3.54
timer:  cdiag4        22398       0.000       2.735     0.08
timer:  c-eigvec      11149       0.025     274.105     7.75
timer:  c-buildD      11148       0.028     310.710     8.79
timer:  DHSCF4           18      16.504     297.077     8.40
timer:  dfscf            18      14.767     265.811     7.52
timer:  overfsm          18       0.127       2.286     0.06
timer:  optical           1       0.000       0.000     0.00
  

elaps: ELAPSED times:
elaps:  Routine       Calls   Time/call    Tot.time        %
elaps:  siesta            1    3539.548    3539.548   100.00
elaps:  Setup             1       0.220       0.220     0.01
elaps:  bands             3       0.558       1.674     0.05
elaps:  writewave         3       0.008       0.025     0.00
elaps:  KSV_init          1       0.000       0.000     0.00
elaps:  IterMD           18     196.531    3537.550    99.94
elaps:  hsparse          18       0.273       4.918     0.14
elaps:  overlap          18       0.130       2.339     0.07
elaps:  IterSCF          89      31.344    2789.651    78.81
elaps:  kinefsm          36       0.135       4.846     0.14
elaps:  nlefsm           36       5.230     188.289     5.32
elaps:  DHSCF           107      23.645    2529.965    71.48
elaps:  DHSCF1           18       0.123       2.210     0.06
elaps:  DHSCF2           18       8.351     150.325     4.25
elaps:  REORD           678       0.000       0.247     0.01
elaps:  POISON          125       0.013       1.571     0.04
elaps:  DHSCF3          107      19.441    2080.233    58.77
elaps:  rhoofd          107       9.305     995.662    28.13
elaps:  cellXC          107       0.078       8.390     0.24
elaps:  vmat            107      10.039    1074.185    30.35
elaps:  MolMec           36       0.000       0.000     0.00
elaps:  diagon           89       8.944     796.008    22.49
elaps:  c-eigval      11249       0.019     211.513     5.98
elaps:  c-buildHS     11249       0.013     142.237     4.02
elaps:  cdiag         22398       0.009     202.363     5.72
elaps:  cdiag1        22398       0.001      17.957     0.51
elaps:  cdiag2        22398       0.002      55.384     1.56
elaps:  cdiag3        22398       0.006     125.286     3.54
elaps:  cdiag4        22398       0.000       2.742     0.08
elaps:  c-eigvec      11149       0.025     274.186     7.75
elaps:  c-buildD      11148       0.028     310.921     8.78
elaps:  DHSCF4           18      16.507     297.118     8.39
elaps:  dfscf            18      14.769     265.849     7.51
elaps:  overfsm          18       0.127       2.286     0.06
elaps:  optical           1       0.000       0.000     0.00
  
>> End of run:  13-MAY-2013  17:40:42
