Siesta Version:                                        siesta-3.2
Architecture  : x86_64-unknown-linux-gnu--unknown
Compiler flags: f95 -g -O2
SERIAL version

* Running in serial mode
>> Start of run:   9-MAY-2013  16:33:40
Siesta Version:                                        siesta-3.2
Architecture  : x86_64-unknown-linux-gnu--unknown
Compiler flags: f95 -g -O2
SERIAL version

* Running in serial mode
>> Start of run:   9-MAY-2013  16:33:40

                           ***********************       
                           *  WELCOME TO SIESTA  *       
                           ***********************       

reinit: Reading from standard input
************************** Dump of input data file ****************************
************************** End of input data file *****************************

reinit: -----------------------------------------------------------------------
reinit: System Name: 
reinit: -----------------------------------------------------------------------
reinit: System Label: siesta                                                      
reinit: -----------------------------------------------------------------------

                           ***********************       
                           *  WELCOME TO SIESTA  *       
                           ***********************       

reinit: Reading from standard input
************************** Dump of input data file ****************************
# FDF for silicon
SystemName             silicon          # Descriptive name of the system
SystemLabel            si          # Short name for naming files
NumberOfAtoms 8
NumberOfSpecies 1
%block ChemicalSpeciesLabel
1 14 Si
%endblock ChemicalSpeciesLabel
LatticeConstant  5.10 Ang
##Basis set Definition##
PAO.BasisType          split        # Type of PAO basis set
PAO.EnergyShift        50 meV
PAO.BasisSize          DZP          # (DZP) Double-z + polarization
#%block LatticeVectors
#0.500 0.500 0.000
#0.500 0.000 0.500
#0.000 0.500 0.500
#%endblock LatticeVectors
AtomicCoordinatesFormat NotScaledCartesianAng
%block AtomicCoordinatesAndAtomicSpecies
	0.00000000	0.00000000	0.00000000  1 Si  1
	1.36000000	1.36000000	1.36000000  1 Si  2
	2.72000000	2.72000000	0.00000000  1 Si  3
	4.08000000	4.08000000	1.36000000  1 Si  4
	2.72000000	0.00000000	2.72000000  1 Si  5
	4.08000000	1.36000000	4.08000000  1 Si  6
	0.00000000	2.72000000	2.72000000  1 Si  7
	1.36000000	4.08000000	4.08000000  1 Si  8
%endblock AtomicCoordinatesAndAtomicSpecies
MeshCutoff 100.0 Ry # 100, 120, 180, 260
kgrid_cutoff 30.0 Bohr # 30, 35, 40, 45
DM.Mixingweight  0.3
DM.NumberPulay    3
DM.Tolerance      1.d-3
DM.UseSaveDM      true
ElectronicTemperature 25 meV
SolutionMethod    diagon
XC.functional     LDA	    # Local Density Approximation
XC.authors        CA           # Ceperley-Alder
SpinPolarized     false
MD.TypeOfRun           CG           # Type of dynamics:
MD.VariableCell        true
MD.NumCGsteps          100          # Number of CG steps for coordinate optimization
MD.MaxCGDispl          0.2 Bohr     # Maximum atomic displacement
                                    #   in one CG step (Bohr)
MD.MaxForceTol         0.04 eV/Ang  # Tolerance in the maximum
                                    #   atomic force (Ry/Bohr)
				
##Output Specification##
WriteMDhistory         true         # Trajectory information
WriteCoorStep          true
WriteCoorXmol          true
WriteMDXmol            true
WriteEigenvalues true
WriteKbands      true
WriteBands       true
WriteWaveFunctions true
WriteMullikenPoP   1
%block BandLines
1	1.000	1.000 1.000 L
25	0.000	0.000	0.000 \Gamma
30	2.000	0.000	0.000 X
10	2.000	0.500	0.500 U
35	0.000	0.000	0.000 \Gamma
%endblock BandLines
%block WaveFuncKPoints
0.0 0.0 0.0 from 1 to 50 # > 16 = 4/2*8 (Valenzelektronen/2, Atomzahl ...)
%endblock WaveFuncKpoints
************************** End of input data file *****************************

reinit: -----------------------------------------------------------------------
reinit: System Name: silicon
reinit: -----------------------------------------------------------------------
reinit: System Label: si                                                          
reinit: -----------------------------------------------------------------------

initatom: Reading input for the pseudopotentials and atomic orbitals ----------

initatom: Reading input for the pseudopotentials and atomic orbitals ----------
No species found!!!
ERROR STOP from Node:    0
 Species number:            1  Label: Si Atomic number:          14
Ground state valence configuration:   3s02  3p02
Reading pseudopotential information in formatted form from Si.psf

Valence configuration for pseudopotential generation:
3s( 2.00) rc: 1.75
3p( 2.00) rc: 1.94
3d( 0.00) rc: 2.09
4f( 0.00) rc: 2.09
For Si, standard SIESTA heuristics set lmxkb to 3
 (one more than the basis l, including polarization orbitals).
Use PS.lmax or PS.KBprojectors blocks to override.

<basis_specs>
===============================================================================
Si                   Z=  14    Mass=  28.090        Charge= 0.17977+309
Lmxo=1 Lmxkb= 3    BasisType=split      Semic=F
L=0  Nsemic=0  Cnfigmx=3
          n=1  nzeta=2  polorb=0
            splnorm:   0.15000    
               vcte:    0.0000    
               rinn:    0.0000    
                rcs:    0.0000      0.0000    
            lambdas:    1.0000      1.0000    
L=1  Nsemic=0  Cnfigmx=3
          n=1  nzeta=2  polorb=1
            splnorm:   0.15000    
               vcte:    0.0000    
               rinn:    0.0000    
                rcs:    0.0000      0.0000    
            lambdas:    1.0000      1.0000    
-------------------------------------------------------------------------------
L=0  Nkbl=1  erefs: 0.17977+309
L=1  Nkbl=1  erefs: 0.17977+309
L=2  Nkbl=1  erefs: 0.17977+309
L=3  Nkbl=1  erefs: 0.17977+309
===============================================================================
</basis_specs>

atom: Called for Si                    (Z =  14)

read_vps: Pseudopotential generation method:
read_vps: ATM3      Troullier-Martins                       
Total valence charge:    4.00000

xc_check: Exchange-correlation functional:
xc_check: Ceperley-Alder
V l=0 = -2*Zval/r beyond r=  2.5494
V l=1 = -2*Zval/r beyond r=  2.5494
V l=2 = -2*Zval/r beyond r=  2.5494
V l=3 = -2*Zval/r beyond r=  2.5494
All V_l potentials equal beyond r=  2.0613
This should be close to max(r_c) in ps generation
All pots = -2*Zval/r beyond r=  2.5494

VLOCAL1: 99.0% of the norm of Vloc inside     10.216 Ry
VLOCAL1: 99.9% of the norm of Vloc inside     23.282 Ry
atom: Maximum radius for 4*pi*r*r*local-pseudopot. charge    2.45560
atom: Maximum radius for r*vlocal+2*Zval:    2.14012
GHOST: No ghost state for L =  0
GHOST: No ghost state for L =  1
GHOST: No ghost state for L =  2
GHOST: No ghost state for L =  3

KBgen: Kleinman-Bylander projectors: 
   l= 0   rc=  2.782581   el= -0.796617   Ekb=  4.840502   kbcos=  0.288423
   l= 1   rc=  2.888916   el= -0.307040   Ekb=  1.512733   kbcos=  0.296968
   l= 2   rc=  2.962054   el=  0.002313   Ekb= -2.156507   kbcos= -0.061834
   l= 3   rc=  3.192765   el=  0.003402   Ekb= -0.600958   kbcos= -0.007408

KBgen: Total number of  Kleinman-Bylander projectors:   16
atom: -------------------------------------------------------------------------

atom: SANKEY-TYPE ORBITALS:
atom: Selected multiple-zeta basis: split     

SPLIT: Orbitals with angular momentum L= 0

SPLIT: Basis orbitals for state 3s

SPLIT: PAO cut-off radius determined from an
SPLIT: energy shift=  0.003675 Ry

   izeta = 1
                 lambda =    1.000000
                     rc =    6.116033
                 energy =   -0.793486
                kinetic =    0.528761
    potential(screened) =   -1.322246
       potential(ionic) =   -3.766038

   izeta = 2
                 rmatch =    4.530823
              splitnorm =    0.150000
                 energy =   -0.697320
                kinetic =    0.853435
    potential(screened) =   -1.550756
       potential(ionic) =   -4.120809

SPLIT: Orbitals with angular momentum L= 1

SPLIT: Basis orbitals for state 3p

SPLIT: PAO cut-off radius determined from an
SPLIT: energy shift=  0.003675 Ry

   izeta = 1
                 lambda =    1.000000
                     rc =    7.853192
                 energy =   -0.303674
                kinetic =    0.798475
    potential(screened) =   -1.102149
       potential(ionic) =   -3.307324

   izeta = 2
                 rmatch =    5.397360
              splitnorm =    0.150000
                 energy =   -0.229357
                kinetic =    1.170483
    potential(screened) =   -1.399841
       potential(ionic) =   -3.814095

POLgen: Perturbative polarization orbital with L=  2

POLgen: Polarization orbital for state 3p

   izeta = 1
                     rc =    7.853192
                 energy =    0.331669
                kinetic =    1.088595
    potential(screened) =   -0.756926
       potential(ionic) =   -2.714870
atom: Total number of Sankey-type orbitals: 13

atm_pop: Valence configuration (for local Pseudopot. screening):
 3s( 2.00)                                                            
 3p( 2.00)                                                            
Vna: chval, zval:    4.00000   4.00000

Vna:  Cut-off radius for the neutral-atom potential:   7.853192

atom: _________________________________________________________________________

prinput: Basis input ----------------------------------------------------------

PAO.BasisType split     

%block ChemicalSpeciesLabel
    1   14 Si                      # Species index, atomic number, species label
%endblock ChemicalSpeciesLabel

%block PAO.Basis                 # Define Basis set
Si                    2                    # Species label, number of l-shells
 n=3   0   2                         # n, l, Nzeta 
   6.116      4.531   
   1.000      1.000   
 n=3   1   2 P   1                   # n, l, Nzeta, Polarization, NzetaPol
   7.853      5.397   
   1.000      1.000   
%endblock PAO.Basis

prinput: ----------------------------------------------------------------------

coor:   Atomic-coordinates input format  =     Cartesian coordinates
coor:                                          (in Angstroms)

siesta: Atomic coordinates (Bohr) and species
siesta:      0.00000   0.00000   0.00000  1        1
siesta:      2.57003   2.57003   2.57003  1        2
siesta:      5.14006   5.14006   0.00000  1        3
siesta:      7.71009   7.71009   2.57003  1        4
siesta:      5.14006   0.00000   5.14006  1        5
siesta:      7.71009   2.57003   7.71009  1        6
siesta:      0.00000   5.14006   5.14006  1        7
siesta:      2.57003   7.71009   7.71009  1        8

siesta: System type = bulk      

initatomlists: Number of atoms, orbitals, and projectors:      8   104   128

siesta: ******************** Simulation parameters ****************************
siesta:
siesta: The following are some of the parameters of the simulation.
siesta: A complete list of the parameters used, including default values,
siesta: can be found in file out.fdf
siesta:
redata: Non-Collinear-spin run           =     F
redata: SpinPolarized (Up/Down) run      =     F
redata: Number of spin components        =     1
redata: Long output                      =     F
redata: Number of Atomic Species         =        1
redata: Charge density info will appear in .RHO file
redata: Write Mulliken Pop.              =     Atomic and Orbital charges
redata: Mesh Cutoff                      =   100.0000  Ry
redata: Net charge of the system         =     0.0000 |e|
redata: Max. number of SCF Iter          =       50
redata: Performing Pulay mixing using    =     3 iterations
redata: Mix DM in first SCF step ?       =     F
redata: Write Pulay info on disk?        =     F
redata: Discard 1st Pulay DM after  kick =     F
redata: New DM Mixing Weight             =     0.3000
redata: New DM Occupancy tolerance       = 0.000000000001
redata: No kicks to SCF
redata: DM Mixing Weight for Kicks       =     0.5000
redata: DM Tolerance for SCF             =     0.001000
redata: Require Energy convergence for SCF =     F
redata: DM Energy tolerance for SCF      =     0.000100 eV
redata: Require Harris convergence for SCF =     F
redata: DM Harris energy tolerance for SCF =     0.000100 eV
redata: Using Saved Data (generic)   =     F
redata: Use continuation files for DM    =     T
redata: Neglect nonoverlap interactions  =     F
redata: Method of Calculation            =     Diagonalization
redata: Divide and Conquer               =     T
redata: Electronic Temperature           =     0.0018  Ry
redata: Fix the spin of the system       =     F
redata: Dynamics option                  =     CG coord. optimization
redata: Variable cell                    =     T
redata: Use continuation files for CG    =     F
redata: Max atomic displ per move        =     0.2000  Bohr
redata: Maximum number of CG moves       =      100
redata: Force tolerance                  =     0.0016  Ry/Bohr
redata: Stress tolerance                 =     1.0000  GPa
redata: ***********************************************************************
Total number of electrons:    32.000000
Total ionic charge:    32.000000
 Kpoints in:          196 . Kpoints trimmed:          172

siesta: k-grid: Number of k-points =   172
siesta: k-grid: Cutoff (effective) =    17.850 Ang
siesta: k-grid: Supercell and displacements
siesta: k-grid:    0   7   0      0.000
siesta: k-grid:    0   0   7      0.000
siesta: k-grid:    7   0   0      0.000
Naive supercell factors:     5    5    5

superc: Internal auxiliary supercell:     5 x     5 x     5  =     125
superc: Number of atoms, orbitals, and projectors:   1000  13000  16000

* Maximum dynamic memory allocated =     2 MB

siesta:                 ==============================
                            Begin CG move =      0
                        ==============================

outcoor: Atomic coordinates (Ang):                          
    0.00000000    0.00000000    0.00000000   1       1  Si
    1.36000000    1.36000000    1.36000000   1       2  Si
    2.72000000    2.72000000    0.00000000   1       3  Si
    4.08000000    4.08000000    1.36000000   1       4  Si
    2.72000000    0.00000000    2.72000000   1       5  Si
    4.08000000    1.36000000    4.08000000   1       6  Si
    0.00000000    2.72000000    2.72000000   1       7  Si
    1.36000000    4.08000000    4.08000000   1       8  Si

superc: Internal auxiliary supercell:     5 x     5 x     5  =     125
superc: Number of atoms, orbitals, and projectors:   1000  13000  16000

outcell: Unit cell vectors (Ang):
        5.100000    0.000000    0.000000
        0.000000    5.100000    0.000000
        0.000000    0.000000    5.100000

outcell: Cell vector modules (Ang)   :    5.100000    5.100000    5.100000
outcell: Cell angles (23,13,12) (deg):     90.0000     90.0000     90.0000
outcell: Cell volume (Ang**3)        :    132.6510
New_DM. Step:     1
Initializing Density Matrix...

InitMesh: MESH =    32 x    32 x    32 =       32768
InitMesh: Mesh cutoff (required, used) =   100.000   108.808 Ry

* Maximum dynamic memory allocated =    81 MB

stepf: Fermi-Dirac step function

siesta: Program's energy decomposition (eV):
siesta: Ebs     =      -387.216551
siesta: Eions   =      1510.441798
siesta: Ena     =       451.767665
siesta: Ekin    =       288.938730
siesta: Enl     =       146.244316
siesta: DEna    =         0.000001
siesta: DUscf   =         0.000000
siesta: DUext   =         0.000000
siesta: Exc     =      -265.762988
siesta: eta*DQ  =         0.000000
siesta: Emadel  =         0.000000
siesta: Emeta   =         0.000000
siesta: Emolmec =         0.000000
siesta: Ekinion =         0.000000
siesta: Eharris =      -857.739381
siesta: Etot    =      -889.254075
siesta: FreeEng =      -889.254075

siesta: iscf   Eharris(eV)      E_KS(eV)   FreeEng(eV)   dDmax  Ef(eV)
siesta:    1     -857.7394     -889.2541     -889.2541  1.6801 -6.0923
timer: Routine,Calls,Time,% = IterSCF        1      29.050  97.56
elaps: Routine,Calls,Wall,% = IterSCF        1      29.143  97.55
siesta:    2     -857.1978     -856.7616     -856.7629  0.2211 -5.8165
siesta:    3     -857.0232     -859.8912     -859.8932  0.1539 -5.8998
siesta:    4     -857.0176     -857.2600     -857.2619  0.0183 -5.9054
siesta:    5     -857.0168     -856.9916     -856.9933  0.0047 -5.9077
siesta:    6     -857.0166     -857.0485     -857.0502  0.0039 -5.9096
siesta:    7     -857.0167     -857.0511     -857.0528  0.0030 -5.9100
siesta:    8     -857.0166     -857.0364     -857.0381  0.0014 -5.9099
siesta:    9     -857.0166     -857.0257     -857.0274  0.0006 -5.9098

siesta: E_KS(eV) =             -857.0170

siesta: E_KS - E_eggbox =      -857.0170

siesta: Atomic forces (eV/Ang):
----------------------------------------
   Tot   -0.023406   -0.023405   -0.023394
----------------------------------------
   Max    3.811038
   Res    2.547502    sqrt( Sum f_i^2 / 3N )
----------------------------------------
   Max    3.811038    constrained

Stress-tensor-Voigt (kbar):     -309.53     -309.53     -309.53       96.71       96.71       96.71
(Free)E + p*V (eV/cell)     -831.3913
Target enthalpy (eV/cell)     -857.0187

siesta: Stress tensor (static) (eV/Ang**3):
        -0.193194    0.060360    0.060360
         0.060360   -0.193194    0.060360
         0.060360    0.060360   -0.193194

siesta: Pressure (static):        309.53412327  kBar

siesta: Stress tensor (total) (eV/Ang**3):
        -0.193194    0.060360    0.060360
         0.060360   -0.193194    0.060360
         0.060360    0.060360   -0.193194

siesta: Pressure (total):        309.53412327  kBar

mulliken: Mulliken Atomic and Orbital Populations:

Species: Si                  
Atom  Qatom  Qorb
               3s      3s      3py     3pz     3px     3py     3pz     3px     
               3Pdxy   3Pdyz   3Pdz2   3Pdxz   3Pdx2-y2
   1  4.227   0.264   0.796   0.068   0.068   0.068   0.707   0.707   0.707
              0.182   0.182   0.148   0.182   0.148
   2  3.877   0.651   0.582   0.093   0.093   0.093   0.598   0.598   0.598
              0.136   0.136   0.082   0.136   0.082
   3  3.927   0.529   0.637   0.032   0.129   0.032   0.660   0.603   0.660
              0.158   0.145   0.086   0.145   0.109
   4  4.039   0.408   0.703   0.088  -0.033   0.088   0.662   0.733   0.662
              0.158   0.164   0.138   0.164   0.102
   5  3.927   0.529   0.637   0.129   0.032   0.032   0.603   0.660   0.660
              0.145   0.145   0.104   0.158   0.092
   6  4.039   0.408   0.703  -0.033   0.088   0.088   0.733   0.662   0.662
              0.164   0.164   0.111   0.158   0.129
   7  3.927   0.529   0.637   0.032   0.032   0.129   0.660   0.660   0.603
              0.145   0.158   0.104   0.145   0.092
   8  4.039   0.408   0.703   0.088   0.088  -0.033   0.662   0.662   0.733
              0.164   0.158   0.111   0.164   0.129

mulliken: Qtot =       32.000

cgvc: No target stress found, assuming hydrostatic MD.TargetPressure.

cgvc: Target stress (kBar)
cgvc:        -0.000       0.000       0.000
cgvc:         0.000      -0.000       0.000
cgvc:         0.000       0.000      -0.000

* Maximum dynamic memory allocated =    83 MB

siesta:                 ==============================
                            Begin CG move =      1
                        ==============================

outcoor: Atomic coordinates (Ang):                          
    0.01987725    0.01987724    0.01987708   1       1  Si
    1.36669916    1.36669915    1.36669920   1       2  Si
    2.72959267    2.72959268    0.00708719   1       3  Si
    4.07051744    4.07051746    1.36863032   1       4  Si
    2.72959266    0.00708724    2.72959273   1       5  Si
    4.07051755    1.36863019    4.07051750   1       6  Si
    0.00708725    2.72959268    2.72959269   1       7  Si
    1.36863020    4.07051755    4.07051752   1       8  Si
 Kpoints in:          196 . Kpoints trimmed:          172

siesta: k-grid: Number of k-points =   172
siesta: k-grid: Cutoff (effective) =    17.975 Ang
siesta: k-grid: Supercell and displacements
siesta: k-grid:    0   0   7      0.000
siesta: k-grid:    7   0   0      0.000
siesta: k-grid:    0   7   0      0.000
Naive supercell factors:     5    5    5

superc: Internal auxiliary supercell:     5 x     5 x     5  =     125
superc: Number of atoms, orbitals, and projectors:   1000  13000  16000

outcell: Unit cell vectors (Ang):
        5.135549   -0.011107   -0.011107
       -0.011107    5.135549   -0.011107
       -0.011107   -0.011107    5.135549

outcell: Cell vector modules (Ang)   :    5.135573    5.135573    5.135573
outcell: Cell angles (23,13,12) (deg):     90.2476     90.2476     90.2476
outcell: Cell volume (Ang**3)        :    135.4424
New_DM. Step:     2
Re-using DM from previous geometry...
Re-using DM without extrapolation (not allowed)
Density Matrix sparsity pattern changed.

InitMesh: MESH =    32 x    32 x    32 =       32768
InitMesh: Mesh cutoff (required, used) =   100.000   107.310 Ry

siesta: iscf   Eharris(eV)      E_KS(eV)   FreeEng(eV)   dDmax  Ef(eV)
siesta:    1     -858.5336     -857.2859     -857.2877  0.0583 -5.8117
siesta:    2     -858.5597     -858.5063     -858.5078  0.0297 -5.7707
siesta:    3     -858.5243     -858.4613     -858.4629  0.0037 -5.7941
siesta:    4     -858.5240     -858.5072     -858.5087  0.0007 -5.7965

siesta: E_KS(eV) =             -858.5183

siesta: Atomic forces (eV/Ang):
----------------------------------------
   Tot   -0.006991   -0.006983   -0.007012
----------------------------------------
   Max    2.797899
   Res    1.932592    sqrt( Sum f_i^2 / 3N )
----------------------------------------
   Max    2.797899    constrained

Stress-tensor-Voigt (kbar):     -254.28     -254.28     -254.28       65.00       65.00       65.00
(Free)E + p*V (eV/cell)     -837.0245
Target enthalpy (eV/cell)     -858.5198

siesta: Stress tensor (static) (eV/Ang**3):
        -0.158705    0.040569    0.040569
         0.040569   -0.158705    0.040569
         0.040569    0.040569   -0.158705

siesta: Pressure (static):        254.27580710  kBar

siesta: Stress tensor (total) (eV/Ang**3):
        -0.158705    0.040569    0.040569
         0.040569   -0.158705    0.040569
         0.040569    0.040569   -0.158705

siesta: Pressure (total):        254.27580710  kBar

mulliken: Mulliken Atomic and Orbital Populations:

Species: Si                  
Atom  Qatom  Qorb
               3s      3s      3py     3pz     3px     3py     3pz     3px     
               3Pdxy   3Pdyz   3Pdz2   3Pdxz   3Pdx2-y2
   1  4.148   0.334   0.747   0.059   0.059   0.059   0.701   0.701   0.701
              0.174   0.174   0.131   0.174   0.131
   2  3.904   0.649   0.577   0.112   0.112   0.112   0.592   0.592   0.592
              0.134   0.134   0.081   0.134   0.081
   3  3.952   0.542   0.627   0.057   0.138   0.057   0.649   0.601   0.649
              0.154   0.144   0.086   0.144   0.105
   4  4.031   0.438   0.683   0.100  -0.016   0.100   0.651   0.720   0.651
              0.154   0.161   0.128   0.161   0.099
   5  3.952   0.542   0.627   0.138   0.057   0.057   0.601   0.649   0.649
              0.144   0.144   0.100   0.154   0.091
   6  4.031   0.438   0.683  -0.016   0.100   0.100   0.720   0.651   0.651
              0.161   0.161   0.106   0.154   0.120
   7  3.952   0.542   0.627   0.057   0.057   0.138   0.649   0.649   0.601
              0.144   0.154   0.100   0.144   0.091
   8  4.031   0.438   0.683   0.100   0.100  -0.016   0.651   0.651   0.720
              0.161   0.154   0.106   0.161   0.120

mulliken: Qtot =       32.000

* Maximum dynamic memory allocated =    84 MB

siesta:                 ==============================
                            Begin CG move =      2
                        ==============================

outcoor: Atomic coordinates (Ang):                          
    0.05189650    0.05189648    0.05189606   1       1  Si
    1.37745192    1.37745189    1.37745202   1       2  Si
    2.74470321    2.74470325    0.01903285   1       3  Si
    4.05467747    4.05467754    1.38339239   1       4  Si
    2.74470320    0.01903298    2.74470339   1       5  Si
    4.05467777    1.38339203    4.05467764   1       6  Si
    0.01903301    2.74470323    2.74470327   1       7  Si
    1.38339206    4.05467775    4.05467769   1       8  Si
 Kpoints in:          196 . Kpoints trimmed:          172

siesta: k-grid: Number of k-points =   172
siesta: k-grid: Cutoff (effective) =    18.174 Ang
siesta: k-grid: Supercell and displacements
siesta: k-grid:    0   0   7      0.000
siesta: k-grid:    7   0   0      0.000
siesta: k-grid:    0   7   0      0.000
Naive supercell factors:     5    5    5

superc: Internal auxiliary supercell:     5 x     5 x     5  =     125
superc: Number of atoms, orbitals, and projectors:   1000  13000  16000

outcell: Unit cell vectors (Ang):
        5.192427   -0.028877   -0.028877
       -0.028877    5.192427   -0.028877
       -0.028877   -0.028877    5.192427

outcell: Cell vector modules (Ang)   :    5.192588    5.192588    5.192588
outcell: Cell angles (23,13,12) (deg):     90.6355     90.6355     90.6355
outcell: Cell volume (Ang**3)        :    139.9815
New_DM. Step:     3
Re-using DM from previous geometry...
Re-using DM without extrapolation (not allowed)
Density Matrix sparsity pattern changed.

InitMesh: MESH =    32 x    32 x    32 =       32768
InitMesh: Mesh cutoff (required, used) =   100.000   104.989 Ry

siesta: iscf   Eharris(eV)      E_KS(eV)   FreeEng(eV)   dDmax  Ef(eV)
siesta:    1     -860.2433     -858.4365     -858.4380  0.0764 -5.6996
siesta:    2     -860.3547     -860.1295     -860.1307  0.0606 -5.6445
siesta:    3     -860.2057     -859.9914     -859.9926  0.0128 -5.6752
siesta:    4     -860.2046     -860.1695     -860.1707  0.0013 -5.6783
siesta:    5     -860.2046     -860.1815     -860.1827  0.0008 -5.6784

siesta: E_KS(eV) =             -860.2002

siesta: Atomic forces (eV/Ang):
----------------------------------------
   Tot    0.011485    0.011482    0.011472
----------------------------------------
   Max    1.892790
   Res    1.141050    sqrt( Sum f_i^2 / 3N )
----------------------------------------
   Max    1.892790    constrained

Stress-tensor-Voigt (kbar):     -182.72     -182.72     -182.72       22.71       22.71       22.71
(Free)E + p*V (eV/cell)     -844.2377
Target enthalpy (eV/cell)     -860.2013

siesta: Stress tensor (static) (eV/Ang**3):
        -0.114041    0.014172    0.014172
         0.014172   -0.114041    0.014172
         0.014172    0.014172   -0.114041

siesta: Pressure (static):        182.71627072  kBar

siesta: Stress tensor (total) (eV/Ang**3):
        -0.114041    0.014172    0.014172
         0.014172   -0.114041    0.014172
         0.014172    0.014172   -0.114041

siesta: Pressure (total):        182.71627072  kBar

mulliken: Mulliken Atomic and Orbital Populations:

Species: Si                  
Atom  Qatom  Qorb
               3s      3s      3py     3pz     3px     3py     3pz     3px     
               3Pdxy   3Pdyz   3Pdz2   3Pdxz   3Pdx2-y2
   1  4.053   0.435   0.682   0.073   0.073   0.073   0.673   0.673   0.673
              0.159   0.159   0.110   0.159   0.110
   2  3.939   0.644   0.574   0.132   0.132   0.132   0.589   0.589   0.589
              0.133   0.133   0.080   0.133   0.080
   3  3.982   0.555   0.616   0.093   0.141   0.093   0.632   0.603   0.632
              0.148   0.142   0.087   0.142   0.097
   4  4.021   0.483   0.654   0.119   0.022   0.119   0.634   0.691   0.634
              0.148   0.155   0.113   0.155   0.093
   5  3.982   0.555   0.616   0.141   0.093   0.093   0.603   0.632   0.632
              0.142   0.142   0.095   0.148   0.089
   6  4.021   0.483   0.654   0.022   0.119   0.119   0.691   0.634   0.634
              0.155   0.155   0.098   0.148   0.108
   7  3.982   0.555   0.616   0.093   0.093   0.141   0.632   0.632   0.603
              0.142   0.148   0.095   0.142   0.089
   8  4.021   0.483   0.654   0.119   0.119   0.022   0.634   0.634   0.691
              0.155   0.148   0.098   0.155   0.108

mulliken: Qtot =       32.000

* Maximum dynamic memory allocated =    96 MB

siesta:                 ==============================
                            Begin CG move =      3
                        ==============================

outcoor: Atomic coordinates (Ang):                          
    0.10367938    0.10367934    0.10367849   1       1  Si
    1.39474363    1.39474357    1.39474383   1       2  Si
    2.76827152    2.76827160    0.03969767   1       3  Si
    4.02762377    4.02762390    1.40945279   1       4  Si
    2.76827148    0.03969792    2.76827186   1       5  Si
    4.02762437    1.40945205    4.02762411   1       6  Si
    0.03969799    2.76827156    2.76827163   1       7  Si
    1.40945211    4.02762433    4.02762422   1       8  Si
 Kpoints in:          196 . Kpoints trimmed:          172

siesta: k-grid: Number of k-points =   172
siesta: k-grid: Cutoff (effective) =    18.494 Ang
siesta: k-grid: Supercell and displacements
siesta: k-grid:    0   0   7      0.000
siesta: k-grid:    7   0   0      0.000
siesta: k-grid:    0   7   0      0.000
Naive supercell factors:     5    5    5

superc: Internal auxiliary supercell:     5 x     5 x     5  =     125
superc: Number of atoms, orbitals, and projectors:   1000  13000  16000

outcell: Unit cell vectors (Ang):
        5.283432   -0.057310   -0.057310
       -0.057310    5.283432   -0.057310
       -0.057310   -0.057310    5.283432

outcell: Cell vector modules (Ang)   :    5.284054    5.284054    5.284053
outcell: Cell angles (23,13,12) (deg):     91.2361     91.2361     91.2361
outcell: Cell volume (Ang**3)        :    147.4327
New_DM. Step:     4
Re-using DM from previous geometry...
Re-using DM without extrapolation (not allowed)
Density Matrix sparsity pattern changed.

InitMesh: MESH =    32 x    32 x    32 =       32768
InitMesh: Mesh cutoff (required, used) =   100.000   101.457 Ry

siesta: iscf   Eharris(eV)      E_KS(eV)   FreeEng(eV)   dDmax  Ef(eV)
siesta:    1     -861.5101     -859.0860     -859.0871  0.0718 -5.6474
siesta:    2     -862.0100     -860.9942     -860.9943  0.1051 -5.6739
siesta:    3     -861.3387     -860.7140     -860.7142  0.0305 -5.6308
siesta:    4     -861.3362     -861.2250     -861.2250  0.0030 -5.6336
siesta:    5     -861.3362     -861.2603     -861.2603  0.0019 -5.6327
siesta:    6     -861.3362     -861.3159     -861.3159  0.0005 -5.6314

siesta: E_KS(eV) =             -861.3255

siesta: Atomic forces (eV/Ang):
----------------------------------------
   Tot   -0.002911   -0.002901   -0.002937
----------------------------------------
   Max    0.778568
   Res    0.599246    sqrt( Sum f_i^2 / 3N )
----------------------------------------
   Max    0.778568    constrained

Stress-tensor-Voigt (kbar):     -103.26     -103.26     -103.26      -26.45      -26.45      -26.45
(Free)E + p*V (eV/cell)     -851.8236
Target enthalpy (eV/cell)     -861.3255

siesta: Stress tensor (static) (eV/Ang**3):
        -0.064449   -0.016507   -0.016507
        -0.016507   -0.064449   -0.016507
        -0.016507   -0.016507   -0.064449

siesta: Pressure (static):        103.25986733  kBar

siesta: Stress tensor (total) (eV/Ang**3):
        -0.064449   -0.016507   -0.016507
        -0.016507   -0.064449   -0.016507
        -0.016507   -0.016507   -0.064449

siesta: Pressure (total):        103.25986733  kBar

mulliken: Mulliken Atomic and Orbital Populations:

Species: Si                  
Atom  Qatom  Qorb
               3s      3s      3py     3pz     3px     3py     3pz     3px     
               3Pdxy   3Pdyz   3Pdz2   3Pdxz   3Pdx2-y2
   1  3.992   0.585   0.599   0.146   0.146   0.146   0.596   0.596   0.596
              0.137   0.137   0.086   0.137   0.086
   2  3.983   0.628   0.577   0.163   0.163   0.163   0.577   0.577   0.577
              0.132   0.132   0.080   0.132   0.080
   3  4.002   0.561   0.612   0.147   0.132   0.147   0.600   0.609   0.600
              0.139   0.140   0.090   0.140   0.087
   4  4.006   0.547   0.619   0.151   0.103   0.151   0.600   0.630   0.600
              0.140   0.143   0.094   0.143   0.086
   5  4.002   0.561   0.612   0.132   0.147   0.147   0.609   0.600   0.600
              0.140   0.140   0.088   0.139   0.089
   6  4.006   0.547   0.619   0.103   0.151   0.151   0.630   0.600   0.600
              0.143   0.143   0.088   0.140   0.092
   7  4.002   0.561   0.612   0.147   0.147   0.132   0.600   0.600   0.609
              0.140   0.139   0.088   0.140   0.089
   8  4.006   0.547   0.619   0.151   0.151   0.103   0.600   0.600   0.630
              0.143   0.140   0.088   0.143   0.092

mulliken: Qtot =       32.000

* Maximum dynamic memory allocated =    96 MB

siesta:                 ==============================
                            Begin CG move =      4
                        ==============================

outcoor: Atomic coordinates (Ang):                          
    0.16598644    0.16598637    0.16598498   1       1  Si
    1.41539474    1.41539465    1.41539508   1       2  Si
    2.79525754    2.79525767    0.06668720   1       3  Si
    3.99280345    3.99280367    1.44426196   1       4  Si
    2.79525747    0.06668760    2.79525810   1       5  Si
    3.99280444    1.44426076    3.99280401   1       6  Si
    0.06668772    2.79525760    2.79525771   1       7  Si
    1.44426085    3.99280437    3.99280419   1       8  Si
 Kpoints in:          108 . Kpoints trimmed:          108

siesta: k-grid: Number of k-points =   108
siesta: k-grid: Cutoff (effective) =    16.179 Ang
siesta: k-grid: Supercell and displacements
siesta: k-grid:    0   0   6      0.500
siesta: k-grid:    6   0   0      0.500
siesta: k-grid:    0   6   0      0.500
Naive supercell factors:     5    5    5

superc: Internal auxiliary supercell:     5 x     5 x     5  =     125
superc: Number of atoms, orbitals, and projectors:   1000  13000  16000

outcell: Unit cell vectors (Ang):
        5.391384   -0.091038   -0.091038
       -0.091038    5.391384   -0.091038
       -0.091038   -0.091038    5.391384

outcell: Cell vector modules (Ang)   :    5.392921    5.392921    5.392921
outcell: Cell angles (23,13,12) (deg):     91.9179     91.9179     91.9179
outcell: Cell volume (Ang**3)        :    156.5759
New_DM. Step:     5
Re-using DM from previous geometry...
Re-using DM without extrapolation (not allowed)
Density Matrix sparsity pattern changed.

InitMesh: MESH =    36 x    36 x    36 =       46656
InitMesh: Mesh cutoff (required, used) =   100.000   123.443 Ry

siesta: iscf   Eharris(eV)      E_KS(eV)   FreeEng(eV)   dDmax  Ef(eV)
siesta:    1     -861.1151     -859.1233     -859.1234  0.0644 -5.4879
siesta:    2     -862.2864     -859.9915     -859.9918  0.1339 -5.5074
siesta:    3     -860.7391     -859.9653     -859.9667  0.0386 -5.5233
siesta:    4     -860.7389     -860.5038     -860.5049  0.0052 -5.5283
siesta:    5     -860.7386     -860.6066     -860.6076  0.0028 -5.5276
siesta:    6     -860.7384     -860.6899     -860.6909  0.0007 -5.5265

siesta: E_KS(eV) =             -860.7111

siesta: Atomic forces (eV/Ang):
----------------------------------------
   Tot    0.004409    0.004419    0.004426
----------------------------------------
   Max    2.113089
   Res    1.472869    sqrt( Sum f_i^2 / 3N )
----------------------------------------
   Max    2.113089    constrained

Stress-tensor-Voigt (kbar):      -51.08      -51.08      -51.08      -69.20      -69.20      -69.20
(Free)E + p*V (eV/cell)     -855.7203
Target enthalpy (eV/cell)     -860.7121

siesta: Stress tensor (static) (eV/Ang**3):
        -0.031881   -0.043193   -0.043193
        -0.043193   -0.031881   -0.043193
        -0.043193   -0.043193   -0.031881

siesta: Pressure (static):         51.07949747  kBar

siesta: Stress tensor (total) (eV/Ang**3):
        -0.031881   -0.043193   -0.043193
        -0.043193   -0.031881   -0.043193
        -0.043193   -0.043193   -0.031881

siesta: Pressure (total):         51.07949747  kBar

mulliken: Mulliken Atomic and Orbital Populations:

Species: Si                  
Atom  Qatom  Qorb
               3s      3s      3py     3pz     3px     3py     3pz     3px     
               3Pdxy   3Pdyz   3Pdz2   3Pdxz   3Pdx2-y2
   1  4.023   0.733   0.531   0.277   0.277   0.277   0.485   0.485   0.485
              0.113   0.113   0.068   0.113   0.068
   2  4.006   0.580   0.606   0.178   0.178   0.178   0.573   0.573   0.573
              0.134   0.134   0.083   0.134   0.083
   3  3.997   0.551   0.618   0.202   0.098   0.202   0.559   0.624   0.559
              0.131   0.139   0.098   0.139   0.077
   4  3.993   0.605   0.590   0.190   0.198   0.190   0.560   0.555   0.560
              0.129   0.128   0.081   0.128   0.081
   5  3.997   0.551   0.618   0.098   0.202   0.202   0.624   0.559   0.559
              0.139   0.139   0.082   0.131   0.093
   6  3.993   0.605   0.590   0.198   0.190   0.190   0.555   0.560   0.560
              0.128   0.128   0.081   0.129   0.081
   7  3.997   0.551   0.618   0.202   0.202   0.098   0.559   0.559   0.624
              0.139   0.131   0.082   0.139   0.093
   8  3.993   0.605   0.590   0.190   0.190   0.198   0.560   0.560   0.555
              0.128   0.129   0.081   0.128   0.081

mulliken: Qtot =       32.000

* Maximum dynamic memory allocated =    96 MB

siesta:                 ==============================
                            Begin CG move =      5
                        ==============================

outcoor: Atomic coordinates (Ang):                          
    0.11882582    0.11882577    0.11882480   1       1  Si
    1.39977908    1.39977902    1.39977932   1       2  Si
    2.77496724    2.77496733    0.04604869   1       3  Si
    4.01938331    4.01938346    1.41757354   1       4  Si
    2.77496719    0.04604898    2.77496764   1       5  Si
    4.01938401    1.41757269    4.01938370   1       6  Si
    0.04604906    2.77496728    2.77496736   1       7  Si
    1.41757276    4.01938396    4.01938383   1       8  Si
 Kpoints in:          108 . Kpoints trimmed:          108

siesta: k-grid: Number of k-points =   108
siesta: k-grid: Cutoff (effective) =    15.932 Ang
siesta: k-grid: Supercell and displacements
siesta: k-grid:    0   0   6      0.500
siesta: k-grid:    6   0   0      0.500
siesta: k-grid:    0   6   0      0.500
Naive supercell factors:     5    5    5

superc: Internal auxiliary supercell:     5 x     5 x     5  =     125
superc: Number of atoms, orbitals, and projectors:   1000  13000  16000

outcell: Unit cell vectors (Ang):
        5.309827   -0.065557   -0.065557
       -0.065557    5.309827   -0.065557
       -0.065557   -0.065557    5.309827

outcell: Cell vector modules (Ang)   :    5.310637    5.310637    5.310637
outcell: Cell angles (23,13,12) (deg):     91.4058     91.4058     91.4058
outcell: Cell volume (Ang**3)        :    149.6377
New_DM. Step:     6
Re-using DM from previous geometry...
Re-using DM without extrapolation (not allowed)
Density Matrix sparsity pattern changed.

InitMesh: MESH =    32 x    32 x    32 =       32768
InitMesh: Mesh cutoff (required, used) =   100.000   100.472 Ry

siesta: iscf   Eharris(eV)      E_KS(eV)   FreeEng(eV)   dDmax  Ef(eV)
siesta:    1     -861.5399     -862.2445     -862.2455  0.0433 -5.6429
siesta:    2     -862.0346     -861.0203     -861.0203  0.1079 -5.6503
siesta:    3     -861.3627     -861.4920     -861.4920  0.0227 -5.6337
siesta:    4     -861.3617     -861.2771     -861.2771  0.0042 -5.6310
siesta:    5     -861.3616     -861.2975     -861.2975  0.0030 -5.6306
siesta:    6     -861.3616     -861.3469     -861.3469  0.0004 -5.6302

siesta: E_KS(eV) =             -861.3535

siesta: Atomic forces (eV/Ang):
----------------------------------------
   Tot   -0.003043   -0.003037   -0.003029
----------------------------------------
   Max    0.887917
   Res    0.744580    sqrt( Sum f_i^2 / 3N )
----------------------------------------
   Max    0.887917    constrained

Stress-tensor-Voigt (kbar):      -86.55      -86.55      -86.55      -38.25      -38.25      -38.25
(Free)E + p*V (eV/cell)     -853.2702
Target enthalpy (eV/cell)     -861.3535

siesta: Stress tensor (static) (eV/Ang**3):
        -0.054019   -0.023872   -0.023872
        -0.023872   -0.054020   -0.023872
        -0.023872   -0.023872   -0.054020

siesta: Pressure (static):         86.54974013  kBar

siesta: Stress tensor (total) (eV/Ang**3):
        -0.054019   -0.023872   -0.023872
        -0.023872   -0.054020   -0.023872
        -0.023872   -0.023872   -0.054020

siesta: Pressure (total):         86.54974013  kBar

mulliken: Mulliken Atomic and Orbital Populations:

Species: Si                  
Atom  Qatom  Qorb
               3s      3s      3py     3pz     3px     3py     3pz     3px     
               3Pdxy   3Pdyz   3Pdz2   3Pdxz   3Pdx2-y2
   1  3.992   0.621   0.582   0.176   0.176   0.176   0.569   0.569   0.569
              0.131   0.131   0.081   0.131   0.081
   2  3.992   0.618   0.582   0.171   0.171   0.171   0.574   0.574   0.574
              0.132   0.132   0.081   0.132   0.081
   3  4.002   0.561   0.611   0.161   0.123   0.161   0.590   0.614   0.590
              0.137   0.140   0.091   0.140   0.084
   4  4.003   0.565   0.610   0.161   0.127   0.161   0.589   0.611   0.589
              0.137   0.139   0.090   0.139   0.085
   5  4.002   0.561   0.611   0.123   0.161   0.161   0.614   0.590   0.590
              0.140   0.140   0.086   0.137   0.089
   6  4.003   0.565   0.610   0.127   0.161   0.161   0.611   0.589   0.589
              0.139   0.139   0.086   0.137   0.089
   7  4.002   0.561   0.611   0.161   0.161   0.123   0.590   0.590   0.614
              0.140   0.137   0.086   0.140   0.089
   8  4.003   0.565   0.610   0.161   0.161   0.127   0.589   0.589   0.611
              0.139   0.137   0.086   0.139   0.089

mulliken: Qtot =       32.000

cgvc: Finished line minimization    1.  Mean atomic displacement =    0.1655

* Maximum dynamic memory allocated =    99 MB

siesta:                 ==============================
                            Begin CG move =      6
                        ==============================

outcoor: Atomic coordinates (Ang):                          
    0.10154776    0.10154777    0.10154778   1       1  Si
    1.48430915    1.48430908    1.48430894   1       2  Si
    2.79881549    2.79881540    0.11388548   1       3  Si
    4.15682153    4.15682175    1.47670007   1       4  Si
    2.79881562    0.11388466    2.79881628   1       5  Si
    4.15682208    1.47669999    4.15682189   1       6  Si
    0.11388463    2.79881577    2.79881621   1       7  Si
    1.47669982    4.15682201    4.15682203   1       8  Si
 Kpoints in:          108 . Kpoints trimmed:          108

siesta: k-grid: Number of k-points =   108
siesta: k-grid: Cutoff (effective) =    16.254 Ang
siesta: k-grid: Supercell and displacements
siesta: k-grid:    6   0   0      0.500
siesta: k-grid:    0   6   0      0.500
siesta: k-grid:    0   0   6      0.500
Naive supercell factors:     5    5    5

superc: Internal auxiliary supercell:     5 x     5 x     5  =     125
superc: Number of atoms, orbitals, and projectors:   1000  13000  16000

outcell: Unit cell vectors (Ang):
        5.417779   -0.038736   -0.038735
       -0.038736    5.417779   -0.038735
       -0.038735   -0.038735    5.417779

outcell: Cell vector modules (Ang)   :    5.418056    5.418056    5.418056
outcell: Cell angles (23,13,12) (deg):     90.8163     90.8163     90.8163
outcell: Cell volume (Ang**3)        :    159.0000
New_DM. Step:     7
Re-using DM from previous geometry...
Re-using DM without extrapolation (not allowed)
Density Matrix sparsity pattern changed.

InitMesh: MESH =    36 x    36 x    36 =       46656
InitMesh: Mesh cutoff (required, used) =   100.000   122.067 Ry

siesta: iscf   Eharris(eV)      E_KS(eV)   FreeEng(eV)   dDmax  Ef(eV)
siesta:    1     -861.9214     -859.8371     -859.8371  0.0661 -5.3147
siesta:    2     -862.0728     -861.7592     -861.7592  0.0802 -5.3337
siesta:    3     -861.8653     -861.6095     -861.6095  0.0102 -5.3251
siesta:    4     -861.8642     -861.8235     -861.8235  0.0026 -5.3263
siesta:    5     -861.8640     -861.8414     -861.8414  0.0017 -5.3261
siesta:    6     -861.8641     -861.8538     -861.8538  0.0003 -5.3257

siesta: E_KS(eV) =             -861.8569

siesta: Atomic forces (eV/Ang):
----------------------------------------
   Tot    0.003717    0.003713    0.003715
----------------------------------------
   Max    0.626268
   Res    0.365578    sqrt( Sum f_i^2 / 3N )
----------------------------------------
   Max    0.626268    constrained

Stress-tensor-Voigt (kbar):      -12.94      -12.94      -12.94       -2.18       -2.18       -2.18
(Free)E + p*V (eV/cell)     -860.5731
Target enthalpy (eV/cell)     -861.8569

siesta: Stress tensor (static) (eV/Ang**3):
        -0.008075   -0.001363   -0.001363
        -0.001363   -0.008075   -0.001363
        -0.001363   -0.001363   -0.008075

siesta: Pressure (static):         12.93712196  kBar

siesta: Stress tensor (total) (eV/Ang**3):
        -0.008075   -0.001363   -0.001363
        -0.001363   -0.008075   -0.001363
        -0.001363   -0.001363   -0.008075

siesta: Pressure (total):         12.93712196  kBar

mulliken: Mulliken Atomic and Orbital Populations:

Species: Si                  
Atom  Qatom  Qorb
               3s      3s      3py     3pz     3px     3py     3pz     3px     
               3Pdxy   3Pdyz   3Pdz2   3Pdxz   3Pdx2-y2
   1  3.997   0.664   0.558   0.229   0.229   0.229   0.525   0.525   0.525
              0.122   0.122   0.073   0.122   0.073
   2  4.007   0.606   0.587   0.201   0.201   0.201   0.554   0.554   0.554
              0.130   0.130   0.080   0.130   0.080
   3  4.001   0.614   0.582   0.211   0.187   0.211   0.545   0.561   0.545
              0.127   0.129   0.081   0.129   0.077
   4  3.998   0.635   0.572   0.208   0.216   0.208   0.544   0.539   0.544
              0.127   0.126   0.076   0.126   0.078
   5  4.001   0.614   0.582   0.187   0.211   0.211   0.561   0.545   0.545
              0.129   0.129   0.078   0.127   0.080
   6  3.998   0.635   0.572   0.216   0.208   0.208   0.539   0.544   0.544
              0.126   0.126   0.077   0.127   0.076
   7  4.001   0.614   0.582   0.211   0.211   0.187   0.545   0.545   0.561
              0.129   0.127   0.078   0.129   0.080
   8  3.998   0.635   0.572   0.208   0.208   0.216   0.544   0.544   0.539
              0.126   0.127   0.077   0.126   0.076

mulliken: Qtot =       32.000

* Maximum dynamic memory allocated =    99 MB

siesta:                 ==============================
                            Begin CG move =      7
                        ==============================

outcoor: Atomic coordinates (Ang):                          
    0.10324907    0.10324907    0.10324899   1       1  Si
    1.47614706    1.47614699    1.47614690   1       2  Si
    2.79663058    2.79663051    0.10739939   1       3  Si
    4.14367346    4.14367367    1.47106496   1       4  Si
    2.79663070    0.10739867    2.79663134   1       5  Si
    4.14367402    1.47106481    4.14367382   1       6  Si
    0.10739865    2.79663084    2.79663124   1       7  Si
    1.47106466    4.14367396    4.14367396   1       8  Si
 Kpoints in:          108 . Kpoints trimmed:          108

siesta: k-grid: Number of k-points =   108
siesta: k-grid: Cutoff (effective) =    16.223 Ang
siesta: k-grid: Supercell and displacements
siesta: k-grid:    6   0   0      0.500
siesta: k-grid:    0   6   0      0.500
siesta: k-grid:    0   0   6      0.500
Naive supercell factors:     5    5    5

superc: Internal auxiliary supercell:     5 x     5 x     5  =     125
superc: Number of atoms, orbitals, and projectors:   1000  13000  16000

outcell: Unit cell vectors (Ang):
        5.407492   -0.041292   -0.041291
       -0.041292    5.407492   -0.041291
       -0.041291   -0.041291    5.407492

outcell: Cell vector modules (Ang)   :    5.407807    5.407807    5.407807
outcell: Cell angles (23,13,12) (deg):     90.8716     90.8716     90.8716
outcell: Cell volume (Ang**3)        :    158.0925
New_DM. Step:     8
Re-using DM from previous geometry...
Re-using DM without extrapolation (not allowed)
Density Matrix sparsity pattern changed.

InitMesh: MESH =    36 x    36 x    36 =       46656
InitMesh: Mesh cutoff (required, used) =   100.000   122.537 Ry

siesta: iscf   Eharris(eV)      E_KS(eV)   FreeEng(eV)   dDmax  Ef(eV)
siesta:    1     -861.8708     -862.0214     -862.0214  0.0052 -5.3556
siesta:    2     -861.8723     -861.8694     -861.8694  0.0076 -5.3554
siesta:    3     -861.8703     -861.8882     -861.8882  0.0010 -5.3548

siesta: E_KS(eV) =             -861.8699

siesta: Atomic forces (eV/Ang):
----------------------------------------
   Tot    0.001678    0.001674    0.001661
----------------------------------------
   Max    0.524665
   Res    0.309893    sqrt( Sum f_i^2 / 3N )
----------------------------------------
   Max    0.524665    constrained

Stress-tensor-Voigt (kbar):      -18.16      -18.16      -18.16       -4.75       -4.75       -4.75
(Free)E + p*V (eV/cell)     -860.0775
Target enthalpy (eV/cell)     -861.8699

siesta: Stress tensor (static) (eV/Ang**3):
        -0.011337   -0.002967   -0.002967
        -0.002967   -0.011337   -0.002967
        -0.002967   -0.002967   -0.011337

siesta: Pressure (static):         18.16466926  kBar

siesta: Stress tensor (total) (eV/Ang**3):
        -0.011337   -0.002967   -0.002967
        -0.002967   -0.011337   -0.002967
        -0.002967   -0.002967   -0.011337

siesta: Pressure (total):         18.16466926  kBar

mulliken: Mulliken Atomic and Orbital Populations:

Species: Si                  
Atom  Qatom  Qorb
               3s      3s      3py     3pz     3px     3py     3pz     3px     
               3Pdxy   3Pdyz   3Pdz2   3Pdxz   3Pdx2-y2
   1  3.996   0.661   0.559   0.223   0.223   0.223   0.530   0.530   0.530
              0.123   0.123   0.074   0.123   0.074
   2  4.005   0.608   0.585   0.199   0.199   0.199   0.555   0.555   0.555
              0.130   0.130   0.080   0.130   0.080
   3  4.002   0.610   0.585   0.206   0.181   0.206   0.550   0.566   0.550
              0.128   0.130   0.082   0.130   0.078
   4  3.998   0.629   0.575   0.203   0.209   0.203   0.549   0.544   0.549
              0.128   0.127   0.077   0.127   0.078
   5  4.002   0.610   0.585   0.181   0.206   0.206   0.566   0.550   0.550
              0.130   0.130   0.079   0.128   0.081
   6  3.998   0.629   0.575   0.209   0.203   0.203   0.544   0.549   0.549
              0.127   0.127   0.078   0.128   0.077
   7  4.002   0.610   0.585   0.206   0.206   0.181   0.550   0.550   0.566
              0.130   0.128   0.079   0.130   0.081
   8  3.998   0.629   0.575   0.203   0.203   0.209   0.549   0.549   0.544
              0.127   0.128   0.078   0.127   0.077

mulliken: Qtot =       32.000

cgvc: Finished line minimization    2.  Mean atomic displacement =    0.1497

* Maximum dynamic memory allocated =    99 MB

siesta:                 ==============================
                            Begin CG move =      8
                        ==============================

outcoor: Atomic coordinates (Ang):                          
    0.12376266    0.12376263    0.12376308   1       1  Si
    1.45216299    1.45216293    1.45216556   1       2  Si
    2.87834317    2.87834317    0.14109745   1       3  Si
    4.25083237    4.25083232    1.45379122   1       4  Si
    2.87834313    0.14110002    2.87834202   1       5  Si
    4.25082980    1.45379141    4.25083139   1       6  Si
    0.14109998    2.87834326    2.87834207   1       7  Si
    1.45379153    4.25083016    4.25083151   1       8  Si
 Kpoints in:          108 . Kpoints trimmed:          108

siesta: k-grid: Number of k-points =   108
siesta: k-grid: Cutoff (effective) =    16.465 Ang
siesta: k-grid: Supercell and displacements
siesta: k-grid:    6   0   0      0.500
siesta: k-grid:    0   6   0      0.500
siesta: k-grid:    0   0   6      0.500
Naive supercell factors:     5    5    5

superc: Internal auxiliary supercell:     5 x     5 x     5  =     125
superc: Number of atoms, orbitals, and projectors:   1000  13000  16000

outcell: Unit cell vectors (Ang):
        5.488242   -0.020636   -0.020636
       -0.020636    5.488242   -0.020636
       -0.020636   -0.020636    5.488242

outcell: Cell vector modules (Ang)   :    5.488319    5.488320    5.488320
outcell: Cell angles (23,13,12) (deg):     90.4301     90.4301     90.4301
outcell: Cell volume (Ang**3)        :    165.3032
New_DM. Step:     9
Re-using DM from previous geometry...
Re-using DM without extrapolation (not allowed)
Density Matrix sparsity pattern changed.

InitMesh: MESH =    36 x    36 x    36 =       46656
InitMesh: Mesh cutoff (required, used) =   100.000   118.926 Ry

siesta: iscf   Eharris(eV)      E_KS(eV)   FreeEng(eV)   dDmax  Ef(eV)
siesta:    1     -861.9700     -860.5263     -860.5263  0.0425 -5.2688
siesta:    2     -862.4399     -861.5327     -861.5327  0.1369 -5.3092
siesta:    3     -861.8249     -861.3191     -861.3191  0.0228 -5.2850
siesta:    4     -861.8248     -861.7327     -861.7327  0.0035 -5.2870
siesta:    5     -861.8247     -861.7688     -861.7688  0.0016 -5.2867
siesta:    6     -861.8246     -861.8028     -861.8028  0.0004 -5.2865

siesta: E_KS(eV) =             -861.8123

siesta: Atomic forces (eV/Ang):
----------------------------------------
   Tot   -0.000292   -0.000287   -0.000256
----------------------------------------
   Max    0.759908
   Res    0.435631    sqrt( Sum f_i^2 / 3N )
----------------------------------------
   Max    0.759908    constrained

Stress-tensor-Voigt (kbar):       19.91       19.91       19.91      -13.07      -13.07      -13.07
(Free)E + p*V (eV/cell)     -863.8663
Target enthalpy (eV/cell)     -861.8123

siesta: Stress tensor (static) (eV/Ang**3):
         0.012426   -0.008157   -0.008158
        -0.008157    0.012426   -0.008158
        -0.008158   -0.008158    0.012426

siesta: Pressure (static):        -19.90818786  kBar

siesta: Stress tensor (total) (eV/Ang**3):
         0.012426   -0.008157   -0.008158
        -0.008157    0.012426   -0.008158
        -0.008158   -0.008158    0.012426

siesta: Pressure (total):        -19.90818786  kBar

mulliken: Mulliken Atomic and Orbital Populations:

Species: Si                  
Atom  Qatom  Qorb
               3s      3s      3py     3pz     3px     3py     3pz     3px     
               3Pdxy   3Pdyz   3Pdz2   3Pdxz   3Pdx2-y2
   1  4.009   0.595   0.593   0.213   0.213   0.213   0.546   0.546   0.546
              0.129   0.129   0.080   0.129   0.080
   2  4.001   0.656   0.562   0.243   0.243   0.243   0.515   0.515   0.515
              0.120   0.120   0.073   0.120   0.073
   3  3.998   0.673   0.554   0.240   0.273   0.240   0.515   0.492   0.515
              0.121   0.117   0.068   0.117   0.073
   4  3.998   0.652   0.564   0.240   0.238   0.240   0.519   0.519   0.519
              0.121   0.121   0.073   0.121   0.073
   5  3.998   0.673   0.554   0.273   0.240   0.240   0.492   0.515   0.515
              0.117   0.117   0.072   0.121   0.069
   6  3.998   0.652   0.564   0.238   0.240   0.240   0.519   0.519   0.519
              0.121   0.121   0.073   0.121   0.073
   7  3.998   0.673   0.554   0.240   0.240   0.273   0.515   0.515   0.492
              0.117   0.121   0.072   0.117   0.069
   8  3.998   0.652   0.564   0.240   0.240   0.238   0.519   0.519   0.519
              0.121   0.121   0.073   0.121   0.073

mulliken: Qtot =       32.000

* Maximum dynamic memory allocated =    99 MB

siesta:                 ==============================
                            Begin CG move =      9
                        ==============================

outcoor: Atomic coordinates (Ang):                          
    0.11205506    0.11205505    0.11205519   1       1  Si
    1.46605278    1.46605272    1.46605380   1       2  Si
    2.83196743    2.83196738    0.12194012   1       3  Si
    4.19016012    4.19016021    1.46378418   1       4  Si
    2.83196748    0.12194082    2.83196736   1       5  Si
    4.19015933    1.46378418    4.19015990   1       6  Si
    0.12194079    2.83196761    2.83196732   1       7  Si
    1.46378414    4.19015945    4.19016003   1       8  Si
 Kpoints in:          108 . Kpoints trimmed:          108

siesta: k-grid: Number of k-points =   108
siesta: k-grid: Cutoff (effective) =    16.328 Ang
siesta: k-grid: Supercell and displacements
siesta: k-grid:    6   0   0      0.500
siesta: k-grid:    0   6   0      0.500
siesta: k-grid:    0   0   6      0.500
Naive supercell factors:     5    5    5

superc: Internal auxiliary supercell:     5 x     5 x     5  =     125
superc: Number of atoms, orbitals, and projectors:   1000  13000  16000

outcell: Unit cell vectors (Ang):
        5.442549   -0.032324   -0.032324
       -0.032324    5.442549   -0.032324
       -0.032324   -0.032324    5.442549

outcell: Cell vector modules (Ang)   :    5.442741    5.442741    5.442741
outcell: Cell angles (23,13,12) (deg):     90.6785     90.6785     90.6785
outcell: Cell volume (Ang**3)        :    161.1985
New_DM. Step:    10
Re-using DM from previous geometry...
Re-using DM without extrapolation (not allowed)
Density Matrix sparsity pattern changed.

InitMesh: MESH =    36 x    36 x    36 =       46656
InitMesh: Mesh cutoff (required, used) =   100.000   120.947 Ry

siesta: iscf   Eharris(eV)      E_KS(eV)   FreeEng(eV)   dDmax  Ef(eV)
siesta:    1     -861.9922     -862.5468     -862.5468  0.0225 -5.3544
siesta:    2     -862.1229     -861.8651     -861.8651  0.0655 -5.3445
siesta:    3     -861.9501     -862.0837     -862.0837  0.0111 -5.3422
siesta:    4     -861.9499     -861.9272     -861.9272  0.0014 -5.3394
siesta:    5     -861.9499     -861.9323     -861.9323  0.0010 -5.3399

siesta: E_KS(eV) =             -861.9450

siesta: Atomic forces (eV/Ang):
----------------------------------------
   Tot    0.005027    0.005030    0.005033
----------------------------------------
   Max    0.162180
   Res    0.069283    sqrt( Sum f_i^2 / 3N )
----------------------------------------
   Max    0.162180    constrained

Stress-tensor-Voigt (kbar):        0.43        0.43        0.43       -8.95       -8.95       -8.95
(Free)E + p*V (eV/cell)     -861.9882
Target enthalpy (eV/cell)     -861.9450

siesta: Stress tensor (static) (eV/Ang**3):
         0.000268   -0.005584   -0.005584
        -0.005584    0.000268   -0.005584
        -0.005584   -0.005584    0.000268

siesta: Pressure (static):         -0.42955316  kBar

siesta: Stress tensor (total) (eV/Ang**3):
         0.000268   -0.005584   -0.005584
        -0.005584    0.000268   -0.005584
        -0.005584   -0.005584    0.000268

siesta: Pressure (total):         -0.42955316  kBar

mulliken: Mulliken Atomic and Orbital Populations:

Species: Si                  
Atom  Qatom  Qorb
               3s      3s      3py     3pz     3px     3py     3pz     3px     
               3Pdxy   3Pdyz   3Pdz2   3Pdxz   3Pdx2-y2
   1  4.001   0.633   0.573   0.220   0.220   0.220   0.536   0.536   0.536
              0.125   0.125   0.076   0.125   0.076
   2  4.000   0.630   0.574   0.216   0.216   0.216   0.539   0.539   0.539
              0.126   0.126   0.076   0.126   0.076
   3  4.000   0.639   0.570   0.220   0.222   0.220   0.535   0.534   0.535
              0.125   0.125   0.075   0.125   0.076
   4  4.000   0.640   0.569   0.221   0.223   0.221   0.535   0.533   0.535
              0.125   0.124   0.075   0.124   0.076
   5  4.000   0.639   0.570   0.222   0.220   0.220   0.534   0.535   0.535
              0.125   0.125   0.076   0.125   0.075
   6  4.000   0.640   0.569   0.223   0.221   0.221   0.533   0.535   0.535
              0.124   0.124   0.076   0.125   0.075
   7  4.000   0.639   0.570   0.220   0.220   0.222   0.535   0.535   0.534
              0.125   0.125   0.076   0.125   0.075
   8  4.000   0.640   0.569   0.221   0.221   0.223   0.535   0.535   0.533
              0.124   0.125   0.076   0.124   0.075

mulliken: Qtot =       32.000

cgvc: Finished line minimization    3.  Mean atomic displacement =    0.0650

* Maximum dynamic memory allocated =    99 MB

siesta:                 ==============================
                            Begin CG move =     10
                        ==============================

outcoor: Atomic coordinates (Ang):                          
    0.12375881    0.12375985    0.12375983   1       1  Si
    1.48452406    1.48452389    1.48451984   1       2  Si
    2.87124268    2.87124246    0.12705277   1       3  Si
    4.23422253    4.23422239    1.53483521   1       4  Si
    2.87124294    0.12704968    2.87124546   1       5  Si
    4.23422557    1.53483667    4.23422401   1       6  Si
    0.12704869    2.87124355    2.87124600   1       7  Si
    1.53483734    4.23422564    4.23422387   1       8  Si
 Kpoints in:          108 . Kpoints trimmed:          108

siesta: k-grid: Number of k-points =   108
siesta: k-grid: Cutoff (effective) =    16.349 Ang
siesta: k-grid: Supercell and displacements
siesta: k-grid:    6   0   0      0.500
siesta: k-grid:    0   0   6      0.500
siesta: k-grid:    0   6   0      0.500
Naive supercell factors:     5    5    5

superc: Internal auxiliary supercell:     5 x     5 x     5  =     125
superc: Number of atoms, orbitals, and projectors:   1000  13000  16000

outcell: Unit cell vectors (Ang):
        5.449791    0.006538    0.006538
        0.006538    5.449791    0.006538
        0.006538    0.006538    5.449791

outcell: Cell vector modules (Ang)   :    5.449798    5.449798    5.449798
outcell: Cell angles (23,13,12) (deg):     89.8624     89.8624     89.8625
outcell: Cell volume (Ang**3)        :    161.8593
New_DM. Step:    11
Re-using DM from previous geometry...
Re-using DM without extrapolation (not allowed)
Density Matrix sparsity pattern changed.

InitMesh: MESH =    36 x    36 x    36 =       46656
InitMesh: Mesh cutoff (required, used) =   100.000   120.601 Ry

siesta: iscf   Eharris(eV)      E_KS(eV)   FreeEng(eV)   dDmax  Ef(eV)
siesta:    1     -861.9458     -861.8099     -861.8099  0.0197 -5.3181
siesta:    2     -861.9860     -861.9047     -861.9047  0.0329 -5.3413
siesta:    3     -861.9320     -861.8972     -861.8972  0.0052 -5.3266
siesta:    4     -861.9319     -861.9226     -861.9226  0.0005 -5.3261

siesta: E_KS(eV) =             -861.9254

siesta: Atomic forces (eV/Ang):
----------------------------------------
   Tot   -0.006440   -0.006447   -0.006433
----------------------------------------
   Max    0.548013
   Res    0.258205    sqrt( Sum f_i^2 / 3N )
----------------------------------------
   Max    0.548013    constrained

Stress-tensor-Voigt (kbar):        3.03        3.03        3.03        5.63        5.63        5.63
(Free)E + p*V (eV/cell)     -862.2313
Target enthalpy (eV/cell)     -861.9254

siesta: Stress tensor (static) (eV/Ang**3):
         0.001890    0.003514    0.003515
         0.003514    0.001890    0.003515
         0.003515    0.003515    0.001890

siesta: Pressure (static):         -3.02816489  kBar

siesta: Stress tensor (total) (eV/Ang**3):
         0.001890    0.003514    0.003515
         0.003514    0.001890    0.003515
         0.003515    0.003515    0.001890

siesta: Pressure (total):         -3.02816489  kBar

mulliken: Mulliken Atomic and Orbital Populations:

Species: Si                  
Atom  Qatom  Qorb
               3s      3s      3py     3pz     3px     3py     3pz     3px     
               3Pdxy   3Pdyz   3Pdz2   3Pdxz   3Pdx2-y2
   1  4.001   0.641   0.569   0.224   0.224   0.224   0.532   0.532   0.532
              0.124   0.124   0.075   0.124   0.075
   2  3.999   0.664   0.557   0.235   0.235   0.235   0.521   0.521   0.521
              0.121   0.121   0.073   0.121   0.073
   3  3.999   0.640   0.569   0.223   0.221   0.223   0.533   0.534   0.533
              0.124   0.124   0.075   0.124   0.075
   4  4.001   0.632   0.573   0.225   0.210   0.225   0.533   0.543   0.533
              0.124   0.125   0.077   0.125   0.075
   5  3.999   0.640   0.569   0.221   0.223   0.223   0.534   0.533   0.533
              0.124   0.124   0.075   0.124   0.075
   6  4.001   0.632   0.573   0.210   0.225   0.225   0.543   0.533   0.533
              0.125   0.125   0.075   0.124   0.077
   7  3.999   0.640   0.569   0.223   0.223   0.221   0.533   0.533   0.534
              0.124   0.124   0.075   0.124   0.075
   8  4.001   0.632   0.573   0.225   0.225   0.210   0.533   0.533   0.543
              0.125   0.124   0.075   0.125   0.077

mulliken: Qtot =       32.000

* Maximum dynamic memory allocated =    99 MB

siesta:                 ==============================
                            Begin CG move =     11
                        ==============================

outcoor: Atomic coordinates (Ang):                          
    0.11602834    0.11602869    0.11602878   1       1  Si
    1.47239491    1.47239481    1.47239413   1       2  Si
    2.84544844    2.84544833    0.12365660   1       3  Si
    4.20524062    4.20524063    1.48812194   1       4  Si
    2.84544856    0.12365600    2.84544935   1       5  Si
    4.20524113    1.48812242    4.20524097   1       6  Si
    0.12365565    2.84544886    2.84544951   1       7  Si
    1.48812263    4.20524124    4.20524101   1       8  Si
 Kpoints in:          108 . Kpoints trimmed:          108

siesta: k-grid: Number of k-points =   108
siesta: k-grid: Cutoff (effective) =    16.335 Ang
siesta: k-grid: Supercell and displacements
siesta: k-grid:    6   0   0      0.500
siesta: k-grid:    0   6   0      0.500
siesta: k-grid:    0   0   6      0.500
Naive supercell factors:     5    5    5

superc: Internal auxiliary supercell:     5 x     5 x     5  =     125
superc: Number of atoms, orbitals, and projectors:   1000  13000  16000

outcell: Unit cell vectors (Ang):
        5.445029   -0.019016   -0.019015
       -0.019016    5.445029   -0.019015
       -0.019015   -0.019015    5.445029

outcell: Cell vector modules (Ang)   :    5.445095    5.445096    5.445096
outcell: Cell angles (23,13,12) (deg):     90.3995     90.3995     90.3995
outcell: Cell volume (Ang**3)        :    161.4302
New_DM. Step:    12
Re-using DM from previous geometry...
Re-using DM without extrapolation (not allowed)
Density Matrix sparsity pattern changed.

InitMesh: MESH =    36 x    36 x    36 =       46656
InitMesh: Mesh cutoff (required, used) =   100.000   120.820 Ry

siesta: iscf   Eharris(eV)      E_KS(eV)   FreeEng(eV)   dDmax  Ef(eV)
siesta:    1     -861.9682     -862.0163     -862.0163  0.0100 -5.3292
siesta:    2     -861.9856     -861.9501     -861.9501  0.0229 -5.3268
siesta:    3     -861.9621     -861.9688     -861.9688  0.0036 -5.3272
siesta:    4     -861.9620     -861.9579     -861.9579  0.0003 -5.3269

siesta: E_KS(eV) =             -861.9591

siesta: Atomic forces (eV/Ang):
----------------------------------------
   Tot    0.007251    0.007251    0.007246
----------------------------------------
   Max    0.099767
   Res    0.063324    sqrt( Sum f_i^2 / 3N )
----------------------------------------
   Max    0.099767    constrained

Stress-tensor-Voigt (kbar):        1.69        1.69        1.69       -3.87       -3.87       -3.87
(Free)E + p*V (eV/cell)     -862.1290
Target enthalpy (eV/cell)     -861.9591

siesta: Stress tensor (static) (eV/Ang**3):
         0.001053   -0.002413   -0.002413
        -0.002413    0.001053   -0.002413
        -0.002413   -0.002413    0.001053

siesta: Pressure (static):         -1.68642730  kBar

siesta: Stress tensor (total) (eV/Ang**3):
         0.001053   -0.002413   -0.002413
        -0.002413    0.001053   -0.002413
        -0.002413   -0.002413    0.001053

siesta: Pressure (total):         -1.68642730  kBar

mulliken: Mulliken Atomic and Orbital Populations:

Species: Si                  
Atom  Qatom  Qorb
               3s      3s      3py     3pz     3px     3py     3pz     3px     
               3Pdxy   3Pdyz   3Pdz2   3Pdxz   3Pdx2-y2
   1  4.001   0.636   0.572   0.221   0.221   0.221   0.535   0.535   0.535
              0.125   0.125   0.076   0.125   0.076
   2  3.999   0.641   0.569   0.223   0.223   0.223   0.533   0.533   0.533
              0.124   0.124   0.075   0.124   0.075
   3  4.000   0.640   0.569   0.222   0.223   0.222   0.534   0.533   0.534
              0.124   0.124   0.075   0.124   0.075
   4  4.000   0.639   0.570   0.222   0.219   0.222   0.534   0.536   0.534
              0.124   0.125   0.076   0.125   0.075
   5  4.000   0.640   0.569   0.223   0.222   0.222   0.533   0.534   0.534
              0.124   0.124   0.075   0.124   0.075
   6  4.000   0.639   0.570   0.219   0.222   0.222   0.536   0.534   0.534
              0.125   0.125   0.075   0.124   0.076
   7  4.000   0.640   0.569   0.222   0.222   0.223   0.534   0.534   0.533
              0.124   0.124   0.075   0.124   0.075
   8  4.000   0.639   0.570   0.222   0.222   0.219   0.534   0.534   0.536
              0.125   0.124   0.075   0.125   0.076

mulliken: Qtot =       32.000

cgvc: Finished line minimization    4.  Mean atomic displacement =    0.0223

* Maximum dynamic memory allocated =    99 MB

siesta:                 ==============================
                            Begin CG move =     12
                        ==============================

outcoor: Atomic coordinates (Ang):                          
    0.12279356    0.12279341    0.12279252   1       1  Si
    1.48351389    1.48351400    1.48351393   1       2  Si
    2.85743239    2.85743231    0.13826486   1       3  Si
    4.21410031    4.21410035    1.50395552   1       4  Si
    2.85743253    0.13826600    2.85743191   1       5  Si
    4.21410076    1.50395503    4.21410123   1       6  Si
    0.13826596    2.85743296    2.85743232   1       7  Si
    1.50395495    4.21410090    4.21410129   1       8  Si
 Kpoints in:          108 . Kpoints trimmed:          108

siesta: k-grid: Number of k-points =   108
siesta: k-grid: Cutoff (effective) =    16.332 Ang
siesta: k-grid: Supercell and displacements
siesta: k-grid:    6   0   0      0.500
siesta: k-grid:    0   0   6      0.500
siesta: k-grid:    0   6   0      0.500
Naive supercell factors:     5    5    5

superc: Internal auxiliary supercell:     5 x     5 x     5  =     125
superc: Number of atoms, orbitals, and projectors:   1000  13000  16000

outcell: Unit cell vectors (Ang):
        5.444133   -0.004634   -0.004634
       -0.004634    5.444133   -0.004634
       -0.004634   -0.004634    5.444133

outcell: Cell vector modules (Ang)   :    5.444137    5.444137    5.444137
outcell: Cell angles (23,13,12) (deg):     90.0975     90.0975     90.0975
outcell: Cell volume (Ang**3)        :    161.3561
New_DM. Step:    13
Re-using DM from previous geometry...
Re-using DM without extrapolation (not allowed)
Density Matrix sparsity pattern changed.

InitMesh: MESH =    36 x    36 x    36 =       46656
InitMesh: Mesh cutoff (required, used) =   100.000   120.851 Ry

siesta: iscf   Eharris(eV)      E_KS(eV)   FreeEng(eV)   dDmax  Ef(eV)
siesta:    1     -861.9697     -861.9721     -861.9721  0.0032 -5.3362
siesta:    2     -861.9706     -861.9686     -861.9686  0.0050 -5.3363
siesta:    3     -861.9693     -861.9691     -861.9691  0.0006 -5.3360

siesta: E_KS(eV) =             -861.9690

siesta: Atomic forces (eV/Ang):
----------------------------------------
   Tot   -0.004352   -0.004354   -0.004467
----------------------------------------
   Max    0.064742
   Res    0.039925    sqrt( Sum f_i^2 / 3N )
----------------------------------------
   Max    0.064742    constrained

Stress-tensor-Voigt (kbar):        1.37        1.37        1.37       -1.39       -1.39       -1.39
(Free)E + p*V (eV/cell)     -862.1073
Target enthalpy (eV/cell)     -861.9690

siesta: Stress tensor (static) (eV/Ang**3):
         0.000856   -0.000867   -0.000869
        -0.000867    0.000856   -0.000869
        -0.000869   -0.000869    0.000857

siesta: Pressure (static):         -1.37250903  kBar

siesta: Stress tensor (total) (eV/Ang**3):
         0.000856   -0.000867   -0.000869
        -0.000867    0.000856   -0.000869
        -0.000869   -0.000869    0.000857

siesta: Pressure (total):         -1.37250903  kBar

mulliken: Mulliken Atomic and Orbital Populations:

Species: Si                  
Atom  Qatom  Qorb
               3s      3s      3py     3pz     3px     3py     3pz     3px     
               3Pdxy   3Pdyz   3Pdz2   3Pdxz   3Pdx2-y2
   1  4.000   0.640   0.569   0.222   0.222   0.222   0.533   0.533   0.533
              0.124   0.124   0.075   0.124   0.075
   2  3.999   0.644   0.567   0.224   0.224   0.224   0.532   0.532   0.532
              0.124   0.124   0.075   0.124   0.075
   3  4.000   0.638   0.570   0.221   0.220   0.221   0.535   0.536   0.535
              0.124   0.125   0.076   0.125   0.075
   4  4.000   0.637   0.570   0.221   0.218   0.221   0.535   0.537   0.535
              0.125   0.125   0.076   0.125   0.075
   5  4.000   0.638   0.570   0.220   0.221   0.221   0.536   0.535   0.535
              0.125   0.125   0.075   0.124   0.076
   6  4.000   0.637   0.570   0.218   0.221   0.221   0.537   0.535   0.535
              0.125   0.125   0.076   0.125   0.076
   7  4.000   0.638   0.570   0.221   0.221   0.220   0.535   0.535   0.536
              0.125   0.124   0.075   0.125   0.076
   8  4.000   0.637   0.570   0.221   0.221   0.218   0.535   0.535   0.537
              0.125   0.125   0.076   0.125   0.076

mulliken: Qtot =       32.000

* Maximum dynamic memory allocated =    99 MB

siesta:                 ==============================
                            Begin CG move =     13
                        ==============================

outcoor: Atomic coordinates (Ang):                          
    0.13374944    0.13374850    0.13374603   1       1  Si
    1.50137958    1.50138002    1.50138093   1       2  Si
    2.87664854    2.87664850    0.16173805   1       3  Si
    4.22814925    4.22814934    1.52916994   1       4  Si
    2.87664871    0.16174196    2.87664586   1       5  Si
    4.22814957    1.52916792    4.22815107   1       6  Si
    0.16174244    2.87664936    2.87664668   1       7  Si
    1.52916735    4.22814979    4.22815115   1       8  Si
 Kpoints in:          108 . Kpoints trimmed:          108

siesta: k-grid: Number of k-points =   108
siesta: k-grid: Cutoff (effective) =    16.328 Ang
siesta: k-grid: Supercell and displacements
siesta: k-grid:    0   0   6      0.500
siesta: k-grid:    6   0   0      0.500
siesta: k-grid:    0   6   0      0.500
Naive supercell factors:     5    5    5

superc: Internal auxiliary supercell:     5 x     5 x     5  =     125
superc: Number of atoms, orbitals, and projectors:   1000  13000  16000

outcell: Unit cell vectors (Ang):
        5.442700    0.018377    0.018375
        0.018377    5.442700    0.018375
        0.018375    0.018375    5.442700

outcell: Cell vector modules (Ang)   :    5.442762    5.442762    5.442762
outcell: Cell angles (23,13,12) (deg):     89.6125     89.6125     89.6125
outcell: Cell volume (Ang**3)        :    161.2235
New_DM. Step:    14
Re-using DM from previous geometry...
Re-using DM without extrapolation (not allowed)
Density Matrix sparsity pattern changed.

InitMesh: MESH =    36 x    36 x    36 =       46656
InitMesh: Mesh cutoff (required, used) =   100.000   120.923 Ry

siesta: iscf   Eharris(eV)      E_KS(eV)   FreeEng(eV)   dDmax  Ef(eV)
siesta:    1     -861.9624     -861.9865     -861.9865  0.0051 -5.3370
siesta:    2     -861.9648     -861.9593     -861.9593  0.0085 -5.3390
siesta:    3     -861.9612     -861.9621     -861.9621  0.0009 -5.3372

siesta: E_KS(eV) =             -861.9604

siesta: Atomic forces (eV/Ang):
----------------------------------------
   Tot   -0.001038   -0.001040   -0.001047
----------------------------------------
   Max    0.143456
   Res    0.098658    sqrt( Sum f_i^2 / 3N )
----------------------------------------
   Max    0.143456    constrained

Stress-tensor-Voigt (kbar):        0.68        0.68        0.68        2.51        2.51        2.51
(Free)E + p*V (eV/cell)     -862.0291
Target enthalpy (eV/cell)     -861.9604

siesta: Stress tensor (static) (eV/Ang**3):
         0.000426    0.001565    0.001564
         0.001565    0.000426    0.001564
         0.001564    0.001564    0.000426

siesta: Pressure (static):         -0.68251649  kBar

siesta: Stress tensor (total) (eV/Ang**3):
         0.000426    0.001565    0.001564
         0.001565    0.000426    0.001564
         0.001564    0.001564    0.000426

siesta: Pressure (total):         -0.68251649  kBar

mulliken: Mulliken Atomic and Orbital Populations:

Species: Si                  
Atom  Qatom  Qorb
               3s      3s      3py     3pz     3px     3py     3pz     3px     
               3Pdxy   3Pdyz   3Pdz2   3Pdxz   3Pdx2-y2
   1  4.000   0.648   0.565   0.225   0.225   0.225   0.531   0.531   0.531
              0.124   0.124   0.075   0.124   0.075
   2  3.999   0.648   0.565   0.222   0.222   0.222   0.533   0.533   0.533
              0.124   0.124   0.075   0.124   0.075
   3  4.000   0.635   0.571   0.220   0.214   0.220   0.536   0.540   0.536
              0.125   0.125   0.076   0.125   0.075
   4  4.000   0.636   0.571   0.219   0.214   0.219   0.537   0.540   0.537
              0.125   0.125   0.076   0.125   0.076
   5  4.000   0.635   0.571   0.214   0.220   0.220   0.540   0.536   0.536
              0.125   0.125   0.076   0.125   0.076
   6  4.000   0.636   0.571   0.214   0.219   0.219   0.540   0.537   0.537
              0.125   0.125   0.076   0.125   0.076
   7  4.000   0.635   0.571   0.220   0.220   0.214   0.536   0.536   0.540
              0.125   0.125   0.076   0.125   0.076
   8  4.000   0.636   0.571   0.219   0.219   0.214   0.537   0.537   0.540
              0.125   0.125   0.076   0.125   0.076

mulliken: Qtot =       32.000

* Maximum dynamic memory allocated =    99 MB

siesta:                 ==============================
                            Begin CG move =     14
                        ==============================

outcoor: Atomic coordinates (Ang):                          
    0.12442514    0.12442487    0.12442374   1       1  Si
    1.48618540    1.48618556    1.48618564   1       2  Si
    2.86030891    2.86030883    0.14177480   1       3  Si
    4.21621566    4.21621571    1.50774360   1       4  Si
    2.86030905    0.14177635    2.86030810   1       5  Si
    4.21621608    1.50774288    4.21621671   1       6  Si
    0.14177639    2.86030951    2.86030857   1       7  Si
    1.50774272    4.21621624    4.21621677   1       8  Si
 Kpoints in:          108 . Kpoints trimmed:          108

siesta: k-grid: Number of k-points =   108
siesta: k-grid: Cutoff (effective) =    16.332 Ang
siesta: k-grid: Supercell and displacements
siesta: k-grid:    0   0   6      0.500
siesta: k-grid:    6   0   0      0.500
siesta: k-grid:    0   6   0      0.500
Naive supercell factors:     5    5    5

superc: Internal auxiliary supercell:     5 x     5 x     5  =     125
superc: Number of atoms, orbitals, and projectors:   1000  13000  16000

outcell: Unit cell vectors (Ang):
        5.443918   -0.001186   -0.001186
       -0.001186    5.443918   -0.001186
       -0.001186   -0.001186    5.443918

[...]
         73.41  86.49  89.14  90.75
  93  1 -16.58 -15.89 -14.72 -14.37 -12.51 -12.12 -10.68  -9.95  -9.68  -9.63
         -8.57  -8.33  -8.12  -7.86  -7.61  -6.66  -3.53  -3.51  -3.03  -2.40
         -2.16  -1.89  -1.87  -1.07  -1.04  -0.88  -0.65  -0.54   0.44   0.46
          1.12   1.90   1.91   1.95   2.55   3.47   3.93   3.96   4.58   5.56
          5.67   5.68   7.47   7.83   8.19   8.48   8.89   9.26   9.47  10.13
         10.41  10.98  11.05  11.30  11.44  11.75  12.03  12.41  13.00  13.32
         14.09  14.28  14.52  14.62  14.68  15.71  16.19  16.42  16.44  17.17
         17.70  17.85  18.73  18.92  19.48  20.80  21.90  22.28  23.26  23.41
         23.83  24.01  24.77  25.18  26.45  26.60  33.00  37.72  39.03  41.09
         44.22  54.19  54.47  56.83  58.51  64.11  65.83  67.78  68.06  69.21
         73.50  86.54  89.22  90.70
  94  1 -16.36 -15.71 -14.79 -14.79 -12.44 -12.44 -11.38 -10.58  -9.18  -9.18
         -8.14  -7.84  -7.84  -7.52  -6.99  -6.97  -3.64  -3.40  -3.27  -3.27
         -2.31  -1.69  -1.69  -1.50  -1.40  -0.68  -0.55   0.32   0.32   0.45
          0.68   0.68   2.74   2.75   3.22   3.24   4.78   4.91   5.05   5.33
          5.40   5.40   6.44   6.44   7.24   8.11   8.78   9.14   9.16   9.17
          9.32   9.33  11.08  11.40  11.40  11.79  13.07  13.32  13.50  13.51
         13.61  14.75  15.02  15.03  16.22  16.22  16.66  16.73  17.25  17.49
         17.49  17.90  17.91  19.27  19.27  19.30  20.89  22.26  22.41  23.93
         24.59  24.59  25.44  27.46  28.10  28.11  32.68  33.49  36.48  36.49
         41.81  49.40  56.14  56.17  57.24  62.23  64.23  68.94  69.00  69.93
         81.74  86.87  86.92  94.69
  95  1 -15.96 -15.39 -15.39 -15.03 -12.47 -12.07 -12.07 -11.43  -8.70  -8.27
         -8.27  -7.54  -7.28  -7.25  -7.25  -6.67  -3.51  -3.47  -3.09  -3.09
         -2.40  -2.40  -2.02  -1.99  -1.56  -1.18  -1.04  -1.04   1.20   1.20
          2.02   2.21   2.39   3.06   3.44   3.88   3.89   4.26   4.26   4.49
          5.12   6.94   6.95   7.14   7.14   7.66   7.98   8.62   8.81   8.82
          8.96   9.21   9.28  10.07  10.50  10.50  13.84  14.09  14.09  15.09
         15.09  15.15  15.58  15.83  15.89  15.99  16.60  16.61  17.76  18.40
         18.45  18.46  19.08  19.08  19.42  19.91  20.59  20.59  21.28  21.91
         27.01  27.24  27.24  28.97  29.10  32.57  32.58  34.68  39.93  41.69
         41.70  48.14  55.70  55.74  58.55  59.55  65.01  76.67  76.68  80.91
         81.87  81.89  90.32  94.01
  96  1 -15.95 -15.40 -15.39 -15.03 -12.48 -12.07 -12.07 -11.43  -8.70  -8.27
         -8.26  -7.55  -7.29  -7.25  -7.24  -6.68  -3.53  -3.48  -3.09  -3.08
         -2.39  -2.39  -2.03  -1.99  -1.55  -1.18  -1.04  -1.03   1.22   1.23
          2.01   2.20   2.42   3.04   3.43   3.87   3.88   4.25   4.25   4.49
          5.14   6.93   6.93   7.10   7.13   7.65   8.00   8.60   8.80   8.81
          8.95   9.24   9.32  10.09  10.51  10.54  13.86  14.08  14.10  15.07
         15.09  15.16  15.60  15.86  15.90  15.99  16.57  16.59  17.75  18.40
         18.46  18.48  19.04  19.07  19.41  19.89  20.58  20.59  21.26  21.97
         26.97  27.21  27.25  28.96  29.09  32.56  32.57  34.63  39.93  41.68
         41.69  48.07  55.76  55.81  58.39  59.48  64.75  76.51  76.55  80.99
         81.89  81.94  90.37  93.48
  97  1 -15.95 -15.39 -15.39 -15.04 -12.47 -12.07 -12.07 -11.42  -8.70  -8.27
         -8.27  -7.55  -7.28  -7.25  -7.24  -6.68  -3.52  -3.47  -3.10  -3.10
         -2.40  -2.39  -2.02  -2.00  -1.54  -1.17  -1.04  -1.04   1.23   1.23
          2.03   2.21   2.40   3.05   3.43   3.88   3.88   4.24   4.24   4.47
          5.10   6.92   6.92   7.14   7.14   7.66   7.98   8.60   8.80   8.80
          8.93   9.26   9.31  10.10  10.54  10.55  13.87  14.11  14.11  15.08
         15.10  15.14  15.61  15.84  15.88  15.96  16.57  16.57  17.74  18.40
         18.45  18.47  19.08  19.09  19.41  19.88  20.57  20.57  21.27  21.93
         27.02  27.22  27.22  28.94  29.10  32.49  32.50  34.66  39.95  41.65
         41.67  48.20  55.50  55.54  58.58  59.53  64.86  76.51  76.52  80.87
         81.83  81.86  90.42  93.80
  98  1 -16.14 -15.50 -15.50 -14.97 -12.01 -11.38 -11.38 -10.57  -9.73  -9.22
         -9.22  -8.61  -7.41  -7.35  -7.34  -6.61  -3.62  -2.90  -2.69  -2.69
         -2.02  -2.02  -1.61  -1.43  -0.31  -0.31  -0.27  -0.12   0.23   0.23
          0.54   0.98   1.55   1.93   2.31   2.56   2.56   4.10   4.10   5.15
          5.74   7.69   7.70   7.97   8.54   8.55   9.37   9.55   9.77   9.88
          9.88  10.60  11.09  11.67  11.67  12.07  12.68  12.88  12.97  12.97
         13.56  13.75  13.76  14.49  15.00  15.24  15.24  15.48  17.58  18.42
         18.43  19.23  20.04  20.05  20.46  20.51  21.74  21.74  21.96  22.48
         25.44  26.04  26.20  26.20  27.97  36.04  36.04  41.20  44.68  44.70
         51.30  51.54  54.31  54.34  59.87  61.56  63.35  69.85  69.86  81.44
         81.46  82.46  85.06  87.99
  99  1 -16.14 -15.50 -15.50 -14.97 -12.01 -11.38 -11.38 -10.57  -9.73  -9.22
         -9.22  -8.60  -7.41  -7.35  -7.35  -6.61  -3.63  -2.90  -2.69  -2.68
         -2.01  -2.01  -1.61  -1.42  -0.34  -0.34  -0.28  -0.14   0.22   0.22
          0.53   0.98   1.57   1.94   2.31   2.58   2.58   4.10   4.10   5.16
          5.75   7.69   7.69   7.97   8.54   8.55   9.36   9.55   9.76   9.91
          9.91  10.59  11.12  11.65  11.66  12.05  12.70  12.87  12.92  12.92
         13.53  13.76  13.76  14.49  15.02  15.27  15.28  15.49  17.57  18.42
         18.43  19.25  20.04  20.05  20.48  20.52  21.75  21.76  21.97  22.46
         25.43  26.04  26.21  26.21  27.97  36.06  36.07  41.20  44.81  44.83
         51.33  51.58  54.31  54.33  59.89  61.47  63.41  70.07  70.09  81.47
         81.48  82.49  85.00  87.98
 100  1 -15.96 -15.39 -15.39 -15.03 -12.47 -12.07 -12.07 -11.43  -8.70  -8.27
         -8.27  -7.54  -7.28  -7.25  -7.25  -6.67  -3.51  -3.47  -3.09  -3.09
         -2.40  -2.40  -2.02  -1.99  -1.56  -1.18  -1.04  -1.04   1.20   1.20
          2.02   2.21   2.39   3.06   3.44   3.88   3.89   4.26   4.26   4.49
          5.12   6.94   6.95   7.14   7.14   7.66   7.98   8.62   8.81   8.82
          8.96   9.21   9.28  10.07  10.50  10.50  13.84  14.09  14.09  15.09
         15.09  15.15  15.58  15.83  15.89  15.99  16.60  16.61  17.76  18.40
         18.45  18.46  19.08  19.08  19.42  19.91  20.59  20.59  21.28  21.91
         27.01  27.24  27.24  28.97  29.10  32.57  32.58  34.68  39.93  41.69
         41.70  48.14  55.70  55.74  58.55  59.55  65.01  76.67  76.68  80.91
         81.87  81.89  90.32  94.01
 101  1 -15.64 -15.26 -15.26 -15.26 -12.58 -12.58 -12.58 -12.17  -7.49  -7.49
         -7.48  -7.07  -7.07  -7.07  -6.83  -6.83  -4.14  -3.68  -3.68  -3.68
         -2.32  -2.31  -2.31  -2.16  -2.16  -1.87  -1.86  -1.86   2.69   2.69
          2.69   3.12   3.99   3.99   4.03   4.05   4.05   5.02   5.34   5.34
          5.34   6.13   6.14   6.14   6.26   6.26   6.27   7.67   7.67   7.89
          7.89   7.89   8.69   8.69   8.69   8.74  15.98  15.99  15.99  16.04
         16.53  16.53  16.75  16.75  16.75  17.43  17.44  17.44  18.21  18.21
         18.22  19.03  19.04  19.04  19.45  19.47  19.47  20.09  20.09  21.91
         28.49  28.49  28.49  29.95  29.95  30.06  30.06  30.07  51.97  51.97
         51.97  56.81  61.56  61.56  61.58  71.78  71.78  71.78  73.98  73.98
         87.54  87.54  87.58 102.97
 102  1 -15.63 -15.27 -15.26 -15.26 -12.58 -12.58 -12.57 -12.17  -7.49  -7.49
         -7.48  -7.07  -7.07  -7.06  -6.84  -6.84  -4.16  -3.68  -3.68  -3.66
         -2.30  -2.30  -2.30  -2.18  -2.16  -1.88  -1.88  -1.86   2.71   2.72
          2.72   3.11   3.99   4.01   4.04   4.04   4.05   5.02   5.32   5.33
          5.33   6.11   6.11   6.12   6.24   6.25   6.25   7.66   7.69   7.89
          7.91   7.91   8.68   8.72   8.72   8.77  15.95  15.99  16.00  16.06
         16.51  16.54  16.77  16.77  16.78  17.41  17.41  17.42  18.14  18.20
         18.20  19.03  19.03  19.04  19.47  19.47  19.48  20.08  20.08  22.00
         28.43  28.43  28.48  29.87  29.96  30.08  30.09  30.11  51.96  51.97
         52.08  56.77  61.33  61.43  61.73  71.77  71.83  71.88  73.44  73.76
         87.36  87.40  87.40 102.75
 103  1 -15.95 -15.40 -15.39 -15.03 -12.48 -12.07 -12.07 -11.43  -8.70  -8.27
         -8.26  -7.55  -7.29  -7.25  -7.24  -6.68  -3.53  -3.48  -3.09  -3.08
         -2.39  -2.39  -2.03  -1.99  -1.55  -1.18  -1.04  -1.03   1.22   1.23
          2.01   2.20   2.42   3.04   3.43   3.87   3.88   4.25   4.25   4.49
          5.14   6.93   6.93   7.10   7.13   7.65   8.00   8.60   8.80   8.81
          8.95   9.24   9.32  10.09  10.51  10.54  13.86  14.08  14.10  15.07
         15.09  15.16  15.60  15.86  15.90  15.99  16.57  16.59  17.75  18.40
         18.46  18.48  19.04  19.07  19.41  19.89  20.58  20.59  21.26  21.97
         26.97  27.21  27.25  28.96  29.09  32.56  32.57  34.63  39.93  41.68
         41.69  48.07  55.76  55.81  58.39  59.48  64.75  76.51  76.55  80.99
         81.89  81.94  90.37  93.48
 104  1 -16.13 -15.51 -15.50 -14.96 -12.01 -11.38 -11.37 -10.57  -9.73  -9.23
         -9.22  -8.61  -7.41  -7.35  -7.34  -6.61  -3.63  -2.91  -2.68  -2.67
         -2.02  -2.01  -1.62  -1.43  -0.32  -0.31  -0.28  -0.14   0.23   0.24
          0.52   0.97   1.55   1.92   2.34   2.58   2.59   4.07   4.08   5.18
          5.77   7.66   7.67   7.98   8.54   8.55   9.39   9.56   9.78   9.88
          9.90  10.60  11.10  11.64  11.66  12.07  12.70  12.87  12.95  12.96
         13.55  13.74  13.75  14.51  15.00  15.25  15.26  15.50  17.61  18.42
         18.43  19.22  20.02  20.04  20.44  20.55  21.75  21.76  21.94  22.49
         25.41  26.03  26.21  26.22  27.96  36.05  36.05  41.19  44.77  44.81
         51.09  51.59  54.46  54.54  59.77  61.60  63.18  69.90  69.93  81.43
         81.48  82.54  85.05  88.03
 105  1 -16.13 -15.51 -15.50 -14.96 -12.01 -11.38 -11.37 -10.57  -9.73  -9.23
         -9.22  -8.61  -7.41  -7.35  -7.34  -6.61  -3.63  -2.91  -2.68  -2.67
         -2.02  -2.01  -1.62  -1.43  -0.32  -0.31  -0.28  -0.14   0.23   0.24
          0.52   0.97   1.55   1.92   2.34   2.58   2.59   4.07   4.08   5.18
          5.77   7.66   7.67   7.98   8.54   8.55   9.39   9.56   9.78   9.88
          9.90  10.60  11.10  11.64  11.66  12.07  12.70  12.87  12.95  12.96
         13.55  13.74  13.75  14.51  15.00  15.25  15.26  15.50  17.61  18.42
         18.43  19.22  20.02  20.04  20.44  20.55  21.75  21.76  21.94  22.49
         25.41  26.03  26.21  26.22  27.96  36.05  36.05  41.19  44.77  44.81
         51.09  51.59  54.46  54.54  59.77  61.60  63.18  69.90  69.93  81.43
         81.48  82.54  85.05  88.03
 106  1 -15.95 -15.40 -15.39 -15.03 -12.48 -12.07 -12.07 -11.43  -8.70  -8.27
         -8.26  -7.55  -7.29  -7.25  -7.24  -6.68  -3.53  -3.48  -3.09  -3.08
         -2.39  -2.39  -2.03  -1.99  -1.55  -1.18  -1.04  -1.03   1.22   1.23
          2.01   2.20   2.42   3.04   3.43   3.87   3.88   4.25   4.25   4.49
          5.14   6.93   6.93   7.10   7.13   7.65   8.00   8.60   8.80   8.81
          8.95   9.24   9.32  10.09  10.51  10.54  13.86  14.08  14.10  15.07
         15.09  15.16  15.60  15.86  15.90  15.99  16.57  16.59  17.75  18.40
         18.46  18.48  19.04  19.07  19.41  19.89  20.58  20.59  21.26  21.97
         26.97  27.21  27.25  28.96  29.09  32.56  32.57  34.63  39.93  41.68
         41.69  48.07  55.76  55.81  58.39  59.48  64.75  76.51  76.55  80.99
         81.89  81.94  90.37  93.48
 107  1 -15.63 -15.27 -15.26 -15.26 -12.58 -12.58 -12.57 -12.17  -7.49  -7.49
         -7.48  -7.07  -7.07  -7.06  -6.84  -6.84  -4.16  -3.68  -3.68  -3.66
         -2.30  -2.30  -2.30  -2.18  -2.16  -1.88  -1.88  -1.86   2.71   2.72
          2.72   3.11   3.99   4.01   4.04   4.04   4.05   5.02   5.32   5.33
          5.33   6.11   6.11   6.12   6.24   6.25   6.25   7.66   7.69   7.89
          7.91   7.91   8.68   8.72   8.72   8.77  15.95  15.99  16.00  16.06
         16.51  16.54  16.77  16.77  16.78  17.41  17.41  17.42  18.14  18.20
         18.20  19.03  19.03  19.04  19.47  19.47  19.48  20.08  20.08  22.00
         28.43  28.43  28.48  29.87  29.96  30.08  30.09  30.11  51.96  51.97
         52.08  56.77  61.33  61.43  61.73  71.77  71.83  71.88  73.44  73.76
         87.36  87.40  87.40 102.75
 108  1 -15.63 -15.27 -15.26 -15.26 -12.58 -12.58 -12.57 -12.17  -7.49  -7.49
         -7.48  -7.07  -7.07  -7.06  -6.84  -6.84  -4.16  -3.68  -3.68  -3.66
         -2.30  -2.30  -2.30  -2.18  -2.16  -1.88  -1.88  -1.86   2.71   2.72
          2.72   3.11   3.99   4.01   4.04   4.04   4.05   5.02   5.32   5.33
          5.33   6.11   6.11   6.12   6.24   6.25   6.25   7.66   7.69   7.89
          7.91   7.91   8.68   8.72   8.72   8.77  15.95  15.99  16.00  16.06
         16.51  16.54  16.77  16.77  16.78  17.41  17.41  17.42  18.14  18.20
         18.20  19.03  19.03  19.04  19.47  19.47  19.48  20.08  20.08  22.00
         28.43  28.43  28.48  29.87  29.96  30.08  30.09  30.11  51.96  51.97
         52.08  56.77  61.33  61.43  61.73  71.77  71.83  71.88  73.44  73.76
         87.36  87.40  87.40 102.75
siesta: Fermi energy =      -5.337027 eV

siesta: Program's energy decomposition (eV):
siesta: Ebs     =      -344.135139
siesta: Eions   =      1510.441798
siesta: Ena     =       465.308578
siesta: Ekin    =       325.065203
siesta: Enl     =       110.997194
siesta: DEna    =         5.131354
siesta: DUscf   =         1.527020
siesta: DUext   =         0.000000
siesta: Exc     =      -259.558067
siesta: eta*DQ  =         0.000000
siesta: Emadel  =         0.000000
siesta: Emeta   =         0.000000
siesta: Emolmec =         0.000000
siesta: Ekinion =         0.000000
siesta: Eharris =      -861.971077
siesta: Etot    =      -861.970516
siesta: FreeEng =      -861.970516

siesta: Final energy (eV):
siesta:  Band Struct. =    -344.135139
siesta:       Kinetic =     325.065203
siesta:       Hartree =      57.865224
siesta:    Ext. field =       0.000000
siesta:   Exch.-corr. =    -259.558067
siesta:  Ion-electron =    -446.497426
siesta:       Ion-ion =    -538.845450
siesta:       Ekinion =       0.000000
siesta:         Total =    -861.970516

siesta: Stress tensor (static) (eV/Ang**3):
siesta:     0.000211    0.000595    0.000596
siesta:     0.000595    0.000211    0.000596
siesta:     0.000596    0.000596    0.000211

siesta: Constrained stress tensor (static) (eV/Ang**3):
siesta:     0.000211    0.000595    0.000596
siesta:     0.000595    0.000211    0.000596
siesta:     0.000596    0.000596    0.000211

siesta: Cell volume =        161.194935 Ang**3

siesta: Pressure (static):
siesta:                Solid            Molecule  Units
siesta:          -0.00000230         -0.00000119  Ry/Bohr**3
siesta:          -0.00021080         -0.00010962  eV/Ang**3
siesta:          -0.33775034         -0.17563161  kBar
(Free)E+ p_basis*V_orbitals  =        -852.996913
(Free)Eharris+ p_basis*V_orbitals  =        -852.997752

* Maximum dynamic memory allocated : Node    0 =    99 MB

* Maximum memory occured during init_pulay_arrrays            

timer: CPU execution times:
timer:  Routine       Calls   Time/call    Tot.time        %
timer:  siesta            1    1769.419    1769.419   100.00
timer:  Setup             1       0.116       0.116     0.01
timer:  bands             3       0.553       1.660     0.09
timer:  writewave         3       0.005       0.016     0.00
timer:  KSV_init          1       0.000       0.000     0.00
timer:  IterMD           17     103.973    1767.535    99.89
timer:  hsparse          17       0.223       3.797     0.21
timer:  overlap          17       0.124       2.112     0.12
timer:  IterSCF          81      17.955    1454.343    82.19
timer:  kinefsm          34       0.126       4.284     0.24
timer:  nlefsm           34       4.932     167.703     9.48
timer:  DHSCF            98       9.653     945.987    53.46
timer:  DHSCF1           17       0.045       0.768     0.04
timer:  DHSCF2           17       2.054      34.914     1.97
timer:  REORD           622       0.000       0.048     0.00
timer:  POISON          115       0.004       0.493     0.03
timer:  DHSCF3           98       8.543     837.212    47.32
timer:  rhoofd           98       3.941     386.264    21.83
timer:  cellXC           98       0.011       1.048     0.06
timer:  vmat             98       4.585     449.364    25.40
timer:  MolMec           34       0.000       0.000     0.00
timer:  diagon           81       7.868     637.287    36.02
timer:  c-eigval      10385       0.019     193.752    10.95
timer:  c-buildHS     10385       0.014     147.767     8.35
timer:  cdiag         20670       0.007     141.507     8.00
timer:  cdiag1        20670       0.001      10.639     0.60
timer:  cdiag2        20670       0.002      36.854     2.08
timer:  cdiag3        20670       0.004      90.874     5.14
timer:  cdiag4        20670       0.000       2.576     0.15
timer:  c-eigvec      10285       0.024     242.361    13.70
timer:  c-buildD      10284       0.020     201.890    11.41
timer:  DHSCF4           17       4.298      73.069     4.13
timer:  dfscf            17       4.145      70.457     3.98
timer:  overfsm          17       0.122       2.080     0.12
timer:  optical           1       0.000       0.000     0.00
  

elaps: ELAPSED times:
elaps:  Routine       Calls   Time/call    Tot.time        %
elaps:  siesta            1    1776.066    1776.066   100.00
elaps:  Setup             1       0.116       0.116     0.01
elaps:  bands             3       0.556       1.667     0.09
elaps:  writewave         3       0.007       0.020     0.00
elaps:  KSV_init          1       0.000       0.000     0.00
elaps:  IterMD           17     104.363    1774.176    99.89
elaps:  hsparse          17       0.224       3.803     0.21
elaps:  overlap          17       0.125       2.120     0.12
elaps:  IterSCF          81      18.023    1459.893    82.20
elaps:  kinefsm          34       0.126       4.301     0.24
elaps:  nlefsm           34       4.948     168.217     9.47
elaps:  DHSCF            98       9.688     949.408    53.46
elaps:  DHSCF1           17       0.046       0.774     0.04
elaps:  DHSCF2           17       2.060      35.015     1.97
elaps:  REORD           622       0.000       0.052     0.00
elaps:  POISON          115       0.004       0.490     0.03
elaps:  DHSCF3           98       8.574     840.258    47.31
elaps:  rhoofd           98       3.955     387.624    21.82
elaps:  cellXC           98       0.011       1.070     0.06
elaps:  vmat             98       4.602     451.029    25.39
elaps:  MolMec           34       0.000       0.000     0.00
elaps:  diagon           81       7.901     639.952    36.03
elaps:  c-eigval      10385       0.019     194.582    10.96
elaps:  c-buildHS     10385       0.014     148.528     8.36
elaps:  cdiag         20670       0.007     141.815     7.98
elaps:  cdiag1        20670       0.001      10.403     0.59
elaps:  cdiag2        20670       0.002      37.009     2.08
elaps:  cdiag3        20670       0.004      91.423     5.15
elaps:  cdiag4        20670       0.000       2.505     0.14
elaps:  c-eigvec      10285       0.024     243.408    13.70
elaps:  c-buildD      10284       0.020     202.750    11.42
elaps:  DHSCF4           17       4.314      73.336     4.13
elaps:  dfscf            17       4.159      70.709     3.98
elaps:  overfsm          17       0.122       2.079     0.12
elaps:  optical           1       0.000       0.000     0.00
  
>> End of run:   9-MAY-2013  17:03:16

=====================================================================================
=   BAD TERMINATION OF ONE OF YOUR APPLICATION PROCESSES
=   EXIT CODE: 134
=   CLEANING UP REMAINING PROCESSES
=   YOU CAN IGNORE THE BELOW CLEANUP MESSAGES
=====================================================================================
APPLICATION TERMINATED WITH THE EXIT STRING: Aborted (signal 6)
