Siesta Version:                                        siesta-3.2
Architecture  : x86_64-unknown-linux-gnu--unknown
Compiler flags: f95 -g -O2
SERIAL version
Siesta Version:                                        siesta-3.2
Architecture  : x86_64-unknown-linux-gnu--unknown
Compiler flags: f95 -g -O2
SERIAL version

* Running in serial mode

* Running in serial mode
>> Start of run:   9-MAY-2013  15:59:38
>> Start of run:   9-MAY-2013  15:59:38

                           ***********************       
                           *  WELCOME TO SIESTA  *       
                           ***********************       


                           ***********************       
                           *  WELCOME TO SIESTA  *       
                           ***********************       
reinit: Reading from standard input

reinit: Reading from standard input
************************** Dump of input data file ****************************
************************** Dump of input data file ****************************
# FDF for silicon
************************** End of input data file *****************************
SystemName             silicon          # Descriptive name of the system
SystemLabel            si          # Short name for naming files
NumberOfAtoms 8
NumberOfSpecies 1
%block ChemicalSpeciesLabel
1 14 Si
%endblock ChemicalSpeciesLabel
LatticeConstant  5.30 Ang
##Basis set Definition##
PAO.BasisType          split        # Type of PAO basis set
PAO.EnergyShift        50 meV
PAO.BasisSize          DZP          # (DZP) Double-z + polarization
#%block LatticeVectors
#0.500 0.500 0.000
#0.500 0.000 0.500
#0.000 0.500 0.500
#%endblock LatticeVectors
AtomicCoordinatesFormat NotScaledCartesianAng
%block AtomicCoordinatesAndAtomicSpecies
	0.00000000	0.00000000	0.00000000  1 Si  1

	1.36000000	1.36000000	1.36000000  1 Si  2
	2.72000000	2.72000000	0.00000000  1 Si  3
reinit: -----------------------------------------------------------------------
reinit: System Name: 
	4.08000000	4.08000000	1.36000000  1 Si  4
	2.72000000	0.00000000	2.72000000  1 Si  5
	4.08000000	1.36000000	4.08000000  1 Si  6
	0.00000000	2.72000000	2.72000000  1 Si  7
reinit: -----------------------------------------------------------------------
	1.36000000	4.08000000	4.08000000  1 Si  8
%endblock AtomicCoordinatesAndAtomicSpecies
reinit: System Label: siesta                                                      
reinit: -----------------------------------------------------------------------
MeshCutoff 100.0 Ry # 100, 120, 180, 260
kgrid_cutoff 30.0 Bohr # 30, 35, 40, 45
DM.Mixingweight  0.3
DM.NumberPulay    3
DM.Tolerance      1.d-3
DM.UseSaveDM      true
ElectronicTemperature 25 meV
SolutionMethod    diagon
XC.functional     LDA	    # Local Density Approximation
XC.authors        CA           # Ceperley-Alder
SpinPolarized     false
MD.TypeOfRun           CG           # Type of dynamics:
MD.VariableCell        true
MD.NumCGsteps          100          # Number of CG steps for coordinate optimization
MD.MaxCGDispl          0.2 Bohr     # Maximum atomic displacement
                                    #   in one CG step (Bohr)
MD.MaxForceTol         0.04 eV/Ang  # Tolerance in the maximum
                                    #   atomic force (Ry/Bohr)
				
##Output Specification##
WriteMDhistory         true         # Trajectory information
WriteCoorStep          true
WriteCoorXmol          true
WriteMDXmol            true
WriteEigenvalues true
WriteKbands      true
WriteBands       true
WriteWaveFunctions true
WriteMullikenPoP   1
%block BandLines
1	1.000	1.000 1.000 L
25	0.000	0.000	0.000 \Gamma
30	2.000	0.000	0.000 X
10	2.000	0.500	0.500 U
35	0.000	0.000	0.000 \Gamma
%endblock BandLines
%block WaveFuncKPoints
0.0 0.0 0.0 from 1 to 50 # > 16 = 4/2*8 (Valenzelektronen/2, Atomzahl ...)
%endblock WaveFuncKpoints
************************** End of input data file *****************************

reinit: -----------------------------------------------------------------------
reinit: System Name: silicon
reinit: -----------------------------------------------------------------------
reinit: System Label: si                                                          
reinit: -----------------------------------------------------------------------

initatom: Reading input for the pseudopotentials and atomic orbitals ----------

initatom: Reading input for the pseudopotentials and atomic orbitals ----------
 Species number:            1  Label: Si Atomic number:          14
Ground state valence configuration:   3s02  3p02
 Species number:            1  Label: Si Atomic number:          14
Ground state valence configuration:   3s02  3p02
Reading pseudopotential information in formatted form from Si.psf

Valence configuration for pseudopotential generation:
3s( 2.00) rc: 1.75
3p( 2.00) rc: 1.94
3d( 0.00) rc: 2.09
4f( 0.00) rc: 2.09
Reading pseudopotential information in formatted form from Si.psf

Valence configuration for pseudopotential generation:
3s( 2.00) rc: 1.75
3p( 2.00) rc: 1.94
3d( 0.00) rc: 2.09
4f( 0.00) rc: 2.09
For Si, standard SIESTA heuristics set lmxkb to 3
 (one more than the basis l, including polarization orbitals).
Use PS.lmax or PS.KBprojectors blocks to override.

<basis_specs>
===============================================================================
Si                   Z=  14    Mass=  28.090        Charge= 0.17977+309
Lmxo=1 Lmxkb= 3    BasisType=split      Semic=F
L=0  Nsemic=0  Cnfigmx=3
          n=1  nzeta=2  polorb=0
For Si, standard SIESTA heuristics set lmxkb to 3
 (one more than the basis l, including polarization orbitals).
Use PS.lmax or PS.KBprojectors blocks to override.

<basis_specs>
===============================================================================
Si                   Z=  14    Mass=  28.090        Charge= 0.17977+309
Lmxo=1 Lmxkb= 3    BasisType=split      Semic=F
L=0  Nsemic=0  Cnfigmx=3
          n=1  nzeta=2  polorb=0
            splnorm:   0.15000    
               vcte:    0.0000    
               rinn:    0.0000    
                rcs:    0.0000      0.0000    
            lambdas:    1.0000      1.0000    
L=1  Nsemic=0  Cnfigmx=3
          n=1  nzeta=2  polorb=1
            splnorm:   0.15000    
               vcte:    0.0000    
               rinn:    0.0000    
                rcs:    0.0000      0.0000    
            lambdas:    1.0000      1.0000    
-------------------------------------------------------------------------------
L=0  Nkbl=1  erefs: 0.17977+309
L=1  Nkbl=1  erefs: 0.17977+309
L=2  Nkbl=1  erefs: 0.17977+309
L=3  Nkbl=1  erefs: 0.17977+309
===============================================================================
</basis_specs>

atom: Called for Si                    (Z =  14)

read_vps: Pseudopotential generation method:
read_vps: ATM3      Troullier-Martins                       
Total valence charge:    4.00000

xc_check: Exchange-correlation functional:
xc_check: Ceperley-Alder
            splnorm:   0.15000    
               vcte:    0.0000    
               rinn:    0.0000    
                rcs:    0.0000      0.0000    
            lambdas:    1.0000      1.0000    
L=1  Nsemic=0  Cnfigmx=3
          n=1  nzeta=2  polorb=1
            splnorm:   0.15000    
               vcte:    0.0000    
               rinn:    0.0000    
                rcs:    0.0000      0.0000    
            lambdas:    1.0000      1.0000    
-------------------------------------------------------------------------------
L=0  Nkbl=1  erefs: 0.17977+309
L=1  Nkbl=1  erefs: 0.17977+309
L=2  Nkbl=1  erefs: 0.17977+309
L=3  Nkbl=1  erefs: 0.17977+309
===============================================================================
</basis_specs>

atom: Called for Si                    (Z =  14)

read_vps: Pseudopotential generation method:
read_vps: ATM3      Troullier-Martins                       
Total valence charge:    4.00000

xc_check: Exchange-correlation functional:
xc_check: Ceperley-Alder
V l=0 = -2*Zval/r beyond r=  2.5494
V l=1 = -2*Zval/r beyond r=  2.5494
V l=2 = -2*Zval/r beyond r=  2.5494
V l=3 = -2*Zval/r beyond r=  2.5494
All V_l potentials equal beyond r=  2.0613
This should be close to max(r_c) in ps generation
All pots = -2*Zval/r beyond r=  2.5494

VLOCAL1: 99.0% of the norm of Vloc inside     10.216 Ry
VLOCAL1: 99.9% of the norm of Vloc inside     23.282 Ry
atom: Maximum radius for 4*pi*r*r*local-pseudopot. charge    2.45560
V l=0 = -2*Zval/r beyond r=  2.5494
V l=1 = -2*Zval/r beyond r=  2.5494
V l=2 = -2*Zval/r beyond r=  2.5494
V l=3 = -2*Zval/r beyond r=  2.5494
All V_l potentials equal beyond r=  2.0613
This should be close to max(r_c) in ps generation
All pots = -2*Zval/r beyond r=  2.5494

VLOCAL1: 99.0% of the norm of Vloc inside     10.216 Ry
VLOCAL1: 99.9% of the norm of Vloc inside     23.282 Ry
atom: Maximum radius for r*vlocal+2*Zval:    2.14012
atom: Maximum radius for 4*pi*r*r*local-pseudopot. charge    2.45560
atom: Maximum radius for r*vlocal+2*Zval:    2.14012
GHOST: No ghost state for L =  0
GHOST: No ghost state for L =  0
GHOST: No ghost state for L =  1
GHOST: No ghost state for L =  1
GHOST: No ghost state for L =  2
GHOST: No ghost state for L =  2
GHOST: No ghost state for L =  3

KBgen: Kleinman-Bylander projectors: 
   l= 0   rc=  2.782581   el= -0.796617   Ekb=  4.840502   kbcos=  0.288423
   l= 1   rc=  2.888916   el= -0.307040   Ekb=  1.512733   kbcos=  0.296968
   l= 2   rc=  2.962054   el=  0.002313   Ekb= -2.156507   kbcos= -0.061834
   l= 3   rc=  3.192765   el=  0.003402   Ekb= -0.600958   kbcos= -0.007408

KBgen: Total number of  Kleinman-Bylander projectors:   16
atom: -------------------------------------------------------------------------

atom: SANKEY-TYPE ORBITALS:
atom: Selected multiple-zeta basis: split     
GHOST: No ghost state for L =  3

SPLIT: Orbitals with angular momentum L= 0

SPLIT: Basis orbitals for state 3s

KBgen: Kleinman-Bylander projectors: 
   l= 0   rc=  2.782581   el= -0.796617   Ekb=  4.840502   kbcos=  0.288423
   l= 1   rc=  2.888916   el= -0.307040   Ekb=  1.512733   kbcos=  0.296968
   l= 2   rc=  2.962054   el=  0.002313   Ekb= -2.156507   kbcos= -0.061834
   l= 3   rc=  3.192765   el=  0.003402   Ekb= -0.600958   kbcos= -0.007408

KBgen: Total number of  Kleinman-Bylander projectors:   16
atom: -------------------------------------------------------------------------

atom: SANKEY-TYPE ORBITALS:
atom: Selected multiple-zeta basis: split     

SPLIT: PAO cut-off radius determined from an
SPLIT: energy shift=  0.003675 Ry

SPLIT: Orbitals with angular momentum L= 0

SPLIT: Basis orbitals for state 3s

SPLIT: PAO cut-off radius determined from an
SPLIT: energy shift=  0.003675 Ry

   izeta = 1
                 lambda =    1.000000
                     rc =    6.116033
                 energy =   -0.793486
                kinetic =    0.528761
    potential(screened) =   -1.322246
       potential(ionic) =   -3.766038

   izeta = 1
                 lambda =    1.000000
                     rc =    6.116033
                 energy =   -0.793486
                kinetic =    0.528761
    potential(screened) =   -1.322246
       potential(ionic) =   -3.766038

   izeta = 2
                 rmatch =    4.530823
              splitnorm =    0.150000
                 energy =   -0.697320
                kinetic =    0.853435
    potential(screened) =   -1.550756
       potential(ionic) =   -4.120809

   izeta = 2
                 rmatch =    4.530823
              splitnorm =    0.150000
                 energy =   -0.697320
                kinetic =    0.853435
    potential(screened) =   -1.550756
       potential(ionic) =   -4.120809

SPLIT: Orbitals with angular momentum L= 1

SPLIT: Basis orbitals for state 3p

SPLIT: PAO cut-off radius determined from an
SPLIT: energy shift=  0.003675 Ry

SPLIT: Orbitals with angular momentum L= 1

SPLIT: Basis orbitals for state 3p

SPLIT: PAO cut-off radius determined from an
SPLIT: energy shift=  0.003675 Ry

   izeta = 1
                 lambda =    1.000000
                     rc =    7.853192
                 energy =   -0.303674
                kinetic =    0.798475
    potential(screened) =   -1.102149
       potential(ionic) =   -3.307324

   izeta = 1
                 lambda =    1.000000
                     rc =    7.853192
                 energy =   -0.303674
                kinetic =    0.798475
    potential(screened) =   -1.102149
       potential(ionic) =   -3.307324

   izeta = 2
                 rmatch =    5.397360
              splitnorm =    0.150000
                 energy =   -0.229357
                kinetic =    1.170483
    potential(screened) =   -1.399841
       potential(ionic) =   -3.814095

   izeta = 2
                 rmatch =    5.397360
              splitnorm =    0.150000
                 energy =   -0.229357
                kinetic =    1.170483
    potential(screened) =   -1.399841
       potential(ionic) =   -3.814095

POLgen: Perturbative polarization orbital with L=  2

POLgen: Polarization orbital for state 3p

POLgen: Perturbative polarization orbital with L=  2

POLgen: Polarization orbital for state 3p

   izeta = 1
                     rc =    7.853192
                 energy =    0.331669
                kinetic =    1.088595
    potential(screened) =   -0.756926
       potential(ionic) =   -2.714870
atom: Total number of Sankey-type orbitals: 13

atm_pop: Valence configuration (for local Pseudopot. screening):
 3s( 2.00)                                                            
 3p( 2.00)                                                            
Vna: chval, zval:    4.00000   4.00000

Vna:  Cut-off radius for the neutral-atom potential:   7.853192

   izeta = 1
                     rc =    7.853192
                 energy =    0.331669
                kinetic =    1.088595
    potential(screened) =   -0.756926
       potential(ionic) =   -2.714870

atom: _________________________________________________________________________

prinput: Basis input ----------------------------------------------------------

PAO.BasisType split     

%block ChemicalSpeciesLabel
    1   14 Si                      # Species index, atomic number, species label
%endblock ChemicalSpeciesLabel

%block PAO.Basis                 # Define Basis set
Si                    2                    # Species label, number of l-shells
 n=3   0   2                         # n, l, Nzeta 
   6.116      4.531   
atom: Total number of Sankey-type orbitals: 13
   1.000      1.000   
 n=3   1   2 P   1                   # n, l, Nzeta, Polarization, NzetaPol

atm_pop: Valence configuration (for local Pseudopot. screening):
   7.853      5.397   
 3s( 2.00)                                                            
   1.000      1.000   
%endblock PAO.Basis

prinput: ----------------------------------------------------------------------

 3p( 2.00)                                                            
Vna: chval, zval:    4.00000   4.00000

Vna:  Cut-off radius for the neutral-atom potential:   7.853192

atom: _________________________________________________________________________

prinput: Basis input ----------------------------------------------------------

PAO.BasisType split     

%block ChemicalSpeciesLabel
    1   14 Si                      # Species index, atomic number, species label
%endblock ChemicalSpeciesLabel

%block PAO.Basis                 # Define Basis set
Si                    2                    # Species label, number of l-shells
 n=3   0   2                         # n, l, Nzeta 
   6.116      4.531   
   1.000      1.000   
 n=3   1   2 P   1                   # n, l, Nzeta, Polarization, NzetaPol
   7.853      5.397   
   1.000      1.000   
%endblock PAO.Basis

prinput: ----------------------------------------------------------------------

coor:   Atomic-coordinates input format  =     Cartesian coordinates
coor:                                          (in Angstroms)
coor:   Atomic-coordinates input format  =     Cartesian coordinates
coor:                                          (in Angstroms)

siesta: Atomic coordinates (Bohr) and species
siesta:      0.00000   0.00000   0.00000  1        1
siesta:      2.57003   2.57003   2.57003  1        2
siesta:      5.14006   5.14006   0.00000  1        3
siesta:      7.71009   7.71009   2.57003  1        4
siesta:      5.14006   0.00000   5.14006  1        5
siesta:      7.71009   2.57003   7.71009  1        6
siesta:      0.00000   5.14006   5.14006  1        7
siesta:      2.57003   7.71009   7.71009  1        8

siesta: System type = bulk      

siesta: Atomic coordinates (Bohr) and species
siesta:      0.00000   0.00000   0.00000  1        1
siesta:      2.57003   2.57003   2.57003  1        2
siesta:      5.14006   5.14006   0.00000  1        3
siesta:      7.71009   7.71009   2.57003  1        4
siesta:      5.14006   0.00000   5.14006  1        5
siesta:      7.71009   2.57003   7.71009  1        6
siesta:      0.00000   5.14006   5.14006  1        7
siesta:      2.57003   7.71009   7.71009  1        8

siesta: System type = bulk      

initatomlists: Number of atoms, orbitals, and projectors:      8   104   128

siesta: ******************** Simulation parameters ****************************
siesta:
siesta: The following are some of the parameters of the simulation.
siesta: A complete list of the parameters used, including default values,
siesta: can be found in file out.fdf
siesta:
redata: Non-Collinear-spin run           =     F
redata: SpinPolarized (Up/Down) run      =     F
redata: Number of spin components        =     1
redata: Long output                      =     F
redata: Number of Atomic Species         =        1
redata: Charge density info will appear in .RHO file

initatomlists: Number of atoms, orbitals, and projectors:      8   104   128
redata: Write Mulliken Pop.              =     Atomic and Orbital charges

siesta: ******************** Simulation parameters ****************************
siesta:
siesta: The following are some of the parameters of the simulation.
siesta: A complete list of the parameters used, including default values,
siesta: can be found in file out.fdf
siesta:
redata: Non-Collinear-spin run           =     F
redata: SpinPolarized (Up/Down) run      =     F
redata: Number of spin components        =     1
redata: Long output                      =     F
redata: Number of Atomic Species         =        1
redata: Mesh Cutoff                      =   100.0000  Ry
redata: Charge density info will appear in .RHO file
redata: Net charge of the system         =     0.0000 |e|
redata: Write Mulliken Pop.              =     Atomic and Orbital charges
redata: Max. number of SCF Iter          =       50
redata: Performing Pulay mixing using    =     3 iterations
redata: Mesh Cutoff                      =   100.0000  Ry
redata: Mix DM in first SCF step ?       =     F
redata: Net charge of the system         =     0.0000 |e|
redata: Write Pulay info on disk?        =     F
redata: Discard 1st Pulay DM after  kick =     F
redata: Max. number of SCF Iter          =       50
redata: New DM Mixing Weight             =     0.3000
redata: New DM Occupancy tolerance       = 0.000000000001
redata: No kicks to SCF
redata: Performing Pulay mixing using    =     3 iterations
redata: DM Mixing Weight for Kicks       =     0.5000
redata: Mix DM in first SCF step ?       =     F
redata: DM Tolerance for SCF             =     0.001000
redata: Write Pulay info on disk?        =     F
redata: Require Energy convergence for SCF =     F
redata: Discard 1st Pulay DM after  kick =     F
redata: New DM Mixing Weight             =     0.3000
redata: DM Energy tolerance for SCF      =     0.000100 eV
redata: Require Harris convergence for SCF =     F
redata: New DM Occupancy tolerance       = 0.000000000001
redata: DM Harris energy tolerance for SCF =     0.000100 eV
redata: No kicks to SCF
redata: Using Saved Data (generic)   =     F
redata: DM Mixing Weight for Kicks       =     0.5000
redata: Use continuation files for DM    =     T
redata: DM Tolerance for SCF             =     0.001000
redata: Neglect nonoverlap interactions  =     F
redata: Require Energy convergence for SCF =     F
redata: Method of Calculation            =     Diagonalization
redata: Divide and Conquer               =     T
redata: DM Energy tolerance for SCF      =     0.000100 eV
redata: Require Harris convergence for SCF =     F
redata: Electronic Temperature           =     0.0018  Ry
redata: DM Harris energy tolerance for SCF =     0.000100 eV
redata: Fix the spin of the system       =     F
redata: Using Saved Data (generic)   =     F
redata: Use continuation files for DM    =     T
redata: Neglect nonoverlap interactions  =     F
redata: Method of Calculation            =     Diagonalization
redata: Divide and Conquer               =     T
redata: Electronic Temperature           =     0.0018  Ry
redata: Fix the spin of the system       =     F
redata: Dynamics option                  =     CG coord. optimization
redata: Variable cell                    =     T
redata: Use continuation files for CG    =     F
redata: Max atomic displ per move        =     0.2000  Bohr
redata: Maximum number of CG moves       =      100
redata: Force tolerance                  =     0.0016  Ry/Bohr
redata: Stress tolerance                 =     1.0000  GPa
redata: Dynamics option                  =     CG coord. optimization
redata: Variable cell                    =     T
redata: Use continuation files for CG    =     F
redata: Max atomic displ per move        =     0.2000  Bohr
redata: Maximum number of CG moves       =      100
redata: Force tolerance                  =     0.0016  Ry/Bohr
redata: Stress tolerance                 =     1.0000  GPa
redata: ***********************************************************************
redata: ***********************************************************************
Total number of electrons:    32.000000
Total ionic charge:    32.000000
Total number of electrons:    32.000000
Total ionic charge:    32.000000
 Kpoints in:          108 . Kpoints trimmed:          108
 Kpoints in:          108 . Kpoints trimmed:          108

siesta: k-grid: Number of k-points =   108
siesta: k-grid: Cutoff (effective) =    15.900 Ang
siesta: k-grid: Supercell and displacements
siesta: k-grid:    0   6   0      0.500
siesta: k-grid:    0   0   6      0.500
siesta: k-grid:    6   0   0      0.500

siesta: k-grid: Number of k-points =   108
siesta: k-grid: Cutoff (effective) =    15.900 Ang
siesta: k-grid: Supercell and displacements
siesta: k-grid:    0   6   0      0.500
siesta: k-grid:    0   0   6      0.500
siesta: k-grid:    6   0   0      0.500
Naive supercell factors:     5    5    5

superc: Internal auxiliary supercell:     5 x     5 x     5  =     125
superc: Number of atoms, orbitals, and projectors:   1000  13000  16000
Naive supercell factors:     5    5    5

* Maximum dynamic memory allocated =     1 MB

siesta:                 ==============================
                            Begin CG move =      0
                        ==============================

outcoor: Atomic coordinates (Ang):                          
    0.00000000    0.00000000    0.00000000   1       1  Si
    1.36000000    1.36000000    1.36000000   1       2  Si
    2.72000000    2.72000000    0.00000000   1       3  Si
    4.08000000    4.08000000    1.36000000   1       4  Si
    2.72000000    0.00000000    2.72000000   1       5  Si
    4.08000000    1.36000000    4.08000000   1       6  Si
    0.00000000    2.72000000    2.72000000   1       7  Si
    1.36000000    4.08000000    4.08000000   1       8  Si

superc: Internal auxiliary supercell:     5 x     5 x     5  =     125
superc: Number of atoms, orbitals, and projectors:   1000  13000  16000

* Maximum dynamic memory allocated =     1 MB

siesta:                 ==============================
                            Begin CG move =      0
                        ==============================

outcoor: Atomic coordinates (Ang):                          
    0.00000000    0.00000000    0.00000000   1       1  Si
    1.36000000    1.36000000    1.36000000   1       2  Si
    2.72000000    2.72000000    0.00000000   1       3  Si
    4.08000000    4.08000000    1.36000000   1       4  Si
    2.72000000    0.00000000    2.72000000   1       5  Si
    4.08000000    1.36000000    4.08000000   1       6  Si
    0.00000000    2.72000000    2.72000000   1       7  Si
    1.36000000    4.08000000    4.08000000   1       8  Si

superc: Internal auxiliary supercell:     5 x     5 x     5  =     125
superc: Number of atoms, orbitals, and projectors:   1000  13000  16000

outcell: Unit cell vectors (Ang):
        5.300000    0.000000    0.000000
        0.000000    5.300000    0.000000
        0.000000    0.000000    5.300000

outcell: Cell vector modules (Ang)   :    5.300000    5.300000    5.300000
outcell: Cell angles (23,13,12) (deg):     90.0000     90.0000     90.0000
outcell: Cell volume (Ang**3)        :    148.8770

superc: Internal auxiliary supercell:     5 x     5 x     5  =     125
superc: Number of atoms, orbitals, and projectors:   1000  13000  16000

outcell: Unit cell vectors (Ang):
        5.300000    0.000000    0.000000
        0.000000    5.300000    0.000000
        0.000000    0.000000    5.300000

outcell: Cell vector modules (Ang)   :    5.300000    5.300000    5.300000
outcell: Cell angles (23,13,12) (deg):     90.0000     90.0000     90.0000
outcell: Cell volume (Ang**3)        :    148.8770
New_DM. Step:     1
Initializing Density Matrix...
New_DM. Step:     1
Initializing Density Matrix...

InitMesh: MESH =    32 x    32 x    32 =       32768
InitMesh: Mesh cutoff (required, used) =   100.000   100.751 Ry

InitMesh: MESH =    32 x    32 x    32 =       32768
InitMesh: Mesh cutoff (required, used) =   100.000   100.751 Ry

* Maximum dynamic memory allocated =    78 MB

* Maximum dynamic memory allocated =    78 MB

stepf: Fermi-Dirac step function

stepf: Fermi-Dirac step function

siesta: Program's energy decomposition (eV):
siesta: Ebs     =      -366.846544
siesta: Eions   =      1510.441798
siesta: Ena     =       460.128856
siesta: Ekin    =       288.938730
siesta: Enl     =       138.846269
siesta: DEna    =         0.000001
siesta: DUscf   =         0.000000
siesta: DUext   =         0.000000
siesta: Exc     =      -259.106934
siesta: eta*DQ  =         0.000000
siesta: Emadel  =         0.000000
siesta: Emeta   =         0.000000
siesta: Emolmec =         0.000000
siesta: Ekinion =         0.000000
siesta: Eharris =      -861.795889
siesta: Etot    =      -881.634877
siesta: FreeEng =      -881.634877

siesta: iscf   Eharris(eV)      E_KS(eV)   FreeEng(eV)   dDmax  Ef(eV)
siesta:    1     -861.7959     -881.6349     -881.6349  1.7211 -5.7439
timer: Routine,Calls,Time,% = IterSCF        1      25.626  97.40
elaps: Routine,Calls,Wall,% = IterSCF        1      25.916  97.42

siesta: Program's energy decomposition (eV):
siesta: Ebs     =      -366.846544
siesta: Eions   =      1510.441798
siesta: Ena     =       460.128856
siesta: Ekin    =       288.938730
siesta: Enl     =       138.846269
siesta: DEna    =         0.000001
siesta: DUscf   =         0.000000
siesta: DUext   =         0.000000
siesta: Exc     =      -259.106934
siesta: eta*DQ  =         0.000000
siesta: Emadel  =         0.000000
siesta: Emeta   =         0.000000
siesta: Emolmec =         0.000000
siesta: Ekinion =         0.000000
siesta: Eharris =      -861.795889
siesta: Etot    =      -881.634877
siesta: FreeEng =      -881.634877

siesta: iscf   Eharris(eV)      E_KS(eV)   FreeEng(eV)   dDmax  Ef(eV)
siesta:    1     -861.7959     -881.6349     -881.6349  1.7211 -5.7439
timer: Routine,Calls,Time,% = IterSCF        1      26.018  97.41
elaps: Routine,Calls,Wall,% = IterSCF        1      26.205  97.42
siesta:    2     -861.2856     -861.1077     -861.1077  0.1450 -5.4295
siesta:    2     -861.2856     -861.1077     -861.1077  0.1450 -5.4295
siesta:    3     -861.2495     -862.4125     -862.4126  0.0829 -5.4734
siesta:    3     -861.2495     -862.4125     -862.4126  0.0829 -5.4734
siesta:    4     -861.2440     -861.2490     -861.2491  0.0047 -5.4911
siesta:    4     -861.2440     -861.2490     -861.2491  0.0047 -5.4911
siesta:    5     -861.2438     -861.2501     -861.2502  0.0035 -5.4919
siesta:    5     -861.2438     -861.2501     -861.2502  0.0035 -5.4919
siesta:    6     -861.2438     -861.2556     -861.2556  0.0022 -5.4928
siesta:    6     -861.2438     -861.2556     -861.2556  0.0022 -5.4928
siesta:    7     -861.2438     -861.2544     -861.2544  0.0012 -5.4928
siesta:    7     -861.2438     -861.2544     -861.2544  0.0012 -5.4928
siesta:    8     -861.2438     -861.2505     -861.2506  0.0006 -5.4926
siesta:    8     -861.2438     -861.2505     -861.2506  0.0006 -5.4926

siesta: E_KS(eV) =             -861.2465

siesta: E_KS - E_eggbox =      -861.2465

siesta: Atomic forces (eV/Ang):
----------------------------------------
   Tot   -0.006030   -0.006037   -0.006017
----------------------------------------
   Max    1.292556
   Res    0.892804    sqrt( Sum f_i^2 / 3N )
----------------------------------------
   Max    1.292556    constrained

Stress-tensor-Voigt (kbar):      -92.54      -92.54      -92.54       22.42       22.42       22.42
(Free)E + p*V (eV/cell)     -852.6473
Target enthalpy (eV/cell)     -861.2465

siesta: Stress tensor (static) (eV/Ang**3):
        -0.057761    0.013994    0.013994
         0.013994   -0.057761    0.013994
         0.013994    0.013994   -0.057761

siesta: Pressure (static):         92.54382474  kBar

siesta: Stress tensor (total) (eV/Ang**3):
        -0.057761    0.013994    0.013994
         0.013994   -0.057761    0.013994
         0.013994    0.013994   -0.057761

siesta: Pressure (total):         92.54382474  kBar

mulliken: Mulliken Atomic and Orbital Populations:

Species: Si                  
Atom  Qatom  Qorb
               3s      3s      3py     3pz     3px     3py     3pz     3px     
               3Pdxy   3Pdyz   3Pdz2   3Pdxz   3Pdx2-y2
   1  4.040   0.494   0.648   0.128   0.128   0.128   0.625   0.625   0.625
              0.148   0.148   0.098   0.148   0.098
   2  3.974   0.651   0.566   0.177   0.177   0.177   0.562   0.562   0.562
              0.128   0.128   0.077   0.128   0.077
   3  3.986   0.598   0.592   0.142   0.193   0.142   0.594   0.561   0.594
              0.138   0.132   0.079   0.132   0.088
   4  4.009   0.546   0.619   0.162   0.105   0.162   0.593   0.628   0.593
              0.138   0.142   0.095   0.142   0.085
   5  3.986   0.598   0.592   0.193   0.142   0.142   0.561   0.594   0.594
              0.132   0.132   0.086   0.138   0.081
   6  4.009   0.546   0.619   0.105   0.162   0.162   0.628   0.593   0.593
              0.142   0.142   0.088   0.138   0.093
   7  3.986   0.598   0.592   0.142   0.142   0.193   0.594   0.594   0.561
              0.132   0.138   0.086   0.132   0.081
   8  4.009   0.546   0.619   0.162   0.162   0.105   0.593   0.593   0.628
              0.142   0.138   0.088   0.142   0.093

mulliken: Qtot =       32.000

cgvc: No target stress found, assuming hydrostatic MD.TargetPressure.

cgvc: Target stress (kBar)
cgvc:        -0.000       0.000       0.000
cgvc:         0.000      -0.000       0.000
cgvc:         0.000       0.000      -0.000

* Maximum dynamic memory allocated =    79 MB

siesta:                 ==============================
                            Begin CG move =      1
                        ==============================

outcoor: Atomic coordinates (Ang):                          
    0.02441494    0.02441485    0.02441467   1       1  Si
    1.36767237    1.36767241    1.36767249   1       2  Si
    2.73097604    2.73097605    0.01407082   1       3  Si
    4.07306918    4.07306917    1.36297063   1       4  Si
    2.73097602    0.01407105    2.73097604   1       5  Si
    4.07306905    1.36297042    4.07306937   1       6  Si
    0.01407111    2.73097600    2.73097599   1       7  Si
    1.36297052    4.07306901    4.07306934   1       8  Si
 Kpoints in:          108 . Kpoints trimmed:          108

siesta: k-grid: Number of k-points =   108
siesta: k-grid: Cutoff (effective) =    16.008 Ang
siesta: k-grid: Supercell and displacements
siesta: k-grid:    0   6   0      0.500
siesta: k-grid:    6   0   0      0.500
siesta: k-grid:    0   0   6      0.500
Naive supercell factors:     5    5    5

superc: Internal auxiliary supercell:     5 x     5 x     5  =     125
superc: Number of atoms, orbitals, and projectors:   1000  13000  16000

outcell: Unit cell vectors (Ang):
        5.336126   -0.008752   -0.008752
       -0.008752    5.336126   -0.008752
       -0.008752   -0.008752    5.336126

outcell: Cell vector modules (Ang)   :    5.336140    5.336140    5.336140
outcell: Cell angles (23,13,12) (deg):     90.1878     90.1878     90.1878
outcell: Cell volume (Ang**3)        :    151.9409
New_DM. Step:     2
Re-using DM from previous geometry...
Re-using DM without extrapolation (not allowed)
Density Matrix sparsity pattern changed.

siesta: E_KS(eV) =             -861.2465

siesta: E_KS - E_eggbox =      -861.2465

siesta: Atomic forces (eV/Ang):
----------------------------------------
   Tot   -0.006030   -0.006037   -0.006017
----------------------------------------
   Max    1.292556
   Res    0.892804    sqrt( Sum f_i^2 / 3N )
----------------------------------------
   Max    1.292556    constrained

Stress-tensor-Voigt (kbar):      -92.54      -92.54      -92.54       22.42       22.42       22.42
(Free)E + p*V (eV/cell)     -852.6473
Target enthalpy (eV/cell)     -861.2465

siesta: Stress tensor (static) (eV/Ang**3):
        -0.057761    0.013994    0.013994
         0.013994   -0.057761    0.013994
         0.013994    0.013994   -0.057761

siesta: Pressure (static):         92.54382474  kBar

siesta: Stress tensor (total) (eV/Ang**3):
        -0.057761    0.013994    0.013994
         0.013994   -0.057761    0.013994
         0.013994    0.013994   -0.057761

siesta: Pressure (total):         92.54382474  kBar

mulliken: Mulliken Atomic and Orbital Populations:

Species: Si                  
Atom  Qatom  Qorb
               3s      3s      3py     3pz     3px     3py     3pz     3px     
               3Pdxy   3Pdyz   3Pdz2   3Pdxz   3Pdx2-y2
   1  4.040   0.494   0.648   0.128   0.128   0.128   0.625   0.625   0.625
              0.148   0.148   0.098   0.148   0.098
   2  3.974   0.651   0.566   0.177   0.177   0.177   0.562   0.562   0.562
              0.128   0.128   0.077   0.128   0.077
   3  3.986   0.598   0.592   0.142   0.193   0.142   0.594   0.561   0.594
              0.138   0.132   0.079   0.132   0.088
   4  4.009   0.546   0.619   0.162   0.105   0.162   0.593   0.628   0.593
              0.138   0.142   0.095   0.142   0.085
   5  3.986   0.598   0.592   0.193   0.142   0.142   0.561   0.594   0.594
              0.132   0.132   0.086   0.138   0.081
   6  4.009   0.546   0.619   0.105   0.162   0.162   0.628   0.593   0.593
              0.142   0.142   0.088   0.138   0.093
   7  3.986   0.598   0.592   0.142   0.142   0.193   0.594   0.594   0.561
              0.132   0.138   0.086   0.132   0.081
   8  4.009   0.546   0.619   0.162   0.162   0.105   0.593   0.593   0.628
              0.142   0.138   0.088   0.142   0.093

mulliken: Qtot =       32.000

cgvc: No target stress found, assuming hydrostatic MD.TargetPressure.

cgvc: Target stress (kBar)
cgvc:        -0.000       0.000       0.000
cgvc:         0.000      -0.000       0.000
cgvc:         0.000       0.000      -0.000

* Maximum dynamic memory allocated =    79 MB

siesta:                 ==============================
                            Begin CG move =      1
                        ==============================

outcoor: Atomic coordinates (Ang):                          
    0.02441494    0.02441485    0.02441467   1       1  Si
    1.36767237    1.36767241    1.36767249   1       2  Si
    2.73097604    2.73097605    0.01407082   1       3  Si
    4.07306918    4.07306917    1.36297063   1       4  Si
    2.73097602    0.01407105    2.73097604   1       5  Si
    4.07306905    1.36297042    4.07306937   1       6  Si
    0.01407111    2.73097600    2.73097599   1       7  Si
    1.36297052    4.07306901    4.07306934   1       8  Si
 Kpoints in:          108 . Kpoints trimmed:          108

siesta: k-grid: Number of k-points =   108
siesta: k-grid: Cutoff (effective) =    16.008 Ang
siesta: k-grid: Supercell and displacements
siesta: k-grid:    0   6   0      0.500
siesta: k-grid:    6   0   0      0.500
siesta: k-grid:    0   0   6      0.500
Naive supercell factors:     5    5    5

superc: Internal auxiliary supercell:     5 x     5 x     5  =     125
superc: Number of atoms, orbitals, and projectors:   1000  13000  16000

outcell: Unit cell vectors (Ang):
        5.336126   -0.008752   -0.008752
       -0.008752    5.336126   -0.008752
       -0.008752   -0.008752    5.336126

outcell: Cell vector modules (Ang)   :    5.336140    5.336140    5.336140
outcell: Cell angles (23,13,12) (deg):     90.1878     90.1878     90.1878
outcell: Cell volume (Ang**3)        :    151.9409
New_DM. Step:     2
Re-using DM from previous geometry...
Re-using DM without extrapolation (not allowed)
Density Matrix sparsity pattern changed.

InitMesh: MESH =    36 x    36 x    36 =       46656
InitMesh: Mesh cutoff (required, used) =   100.000   125.794 Ry

InitMesh: MESH =    36 x    36 x    36 =       46656
InitMesh: Mesh cutoff (required, used) =   100.000   125.794 Ry

siesta: iscf   Eharris(eV)      E_KS(eV)   FreeEng(eV)   dDmax  Ef(eV)
siesta:    1     -861.7064     -860.8798     -860.8799  0.0278 -5.4794

siesta: iscf   Eharris(eV)      E_KS(eV)   FreeEng(eV)   dDmax  Ef(eV)
siesta:    1     -861.7064     -860.8798     -860.8799  0.0278 -5.4794
siesta:    2     -861.7689     -861.6441     -861.6441  0.0347 -5.4558
siesta:    2     -861.7689     -861.6441     -861.6441  0.0347 -5.4558
siesta:    3     -861.6858     -861.5171     -861.5171  0.0092 -5.4724
siesta:    3     -861.6858     -861.5171     -861.5171  0.0092 -5.4724
siesta:    4     -861.6855     -861.6721     -861.6721  0.0007 -5.4744
siesta:    4     -861.6855     -861.6721     -861.6721  0.0007 -5.4744

siesta: E_KS(eV) =             -861.6761

siesta: Atomic forces (eV/Ang):
----------------------------------------
   Tot    0.001249    0.001260    0.001245
----------------------------------------
   Max    0.615771
   Res    0.444901    sqrt( Sum f_i^2 / 3N )
----------------------------------------
   Max    0.615771    constrained

Stress-tensor-Voigt (kbar):      -64.08      -64.08      -64.08        4.49        4.49        4.49
(Free)E + p*V (eV/cell)     -855.5992
Target enthalpy (eV/cell)     -861.6761

siesta: Stress tensor (static) (eV/Ang**3):
        -0.039995    0.002802    0.002801
         0.002802   -0.039995    0.002801
         0.002801    0.002801   -0.039996

siesta: Pressure (static):         64.08041602  kBar

siesta: Stress tensor (total) (eV/Ang**3):
        -0.039995    0.002802    0.002801
         0.002802   -0.039995    0.002801
         0.002801    0.002801   -0.039996

siesta: Pressure (total):         64.08041602  kBar

mulliken: Mulliken Atomic and Orbital Populations:

Species: Si                  
Atom  Qatom  Qorb
               3s      3s      3py     3pz     3px     3py     3pz     3px     
               3Pdxy   3Pdyz   3Pdz2   3Pdxz   3Pdx2-y2
   1  4.018   0.548   0.617   0.154   0.154   0.154   0.597   0.597   0.597
              0.140   0.140   0.089   0.140   0.089
   2  3.988   0.640   0.570   0.189   0.189   0.189   0.557   0.557   0.557
              0.128   0.128   0.078   0.128   0.078
   3  3.994   0.606   0.587   0.164   0.193   0.164   0.579   0.561   0.579
              0.134   0.131   0.079   0.131   0.084
   4  4.004   0.575   0.603   0.174   0.141   0.174   0.579   0.599   0.579
              0.134   0.137   0.088   0.137   0.083
   5  3.994   0.606   0.587   0.193   0.164   0.164   0.561   0.579   0.579
              0.131   0.131   0.083   0.134   0.080
   6  4.004   0.575   0.603   0.141   0.174   0.174   0.599   0.579   0.579
              0.137   0.137   0.084   0.134   0.087
   7  3.994   0.606   0.587   0.164   0.164   0.193   0.579   0.579   0.561
              0.131   0.134   0.083   0.131   0.080
   8  4.004   0.575   0.603   0.174   0.174   0.141   0.579   0.579   0.599
              0.137   0.134   0.084   0.137   0.087

mulliken: Qtot =       32.000

* Maximum dynamic memory allocated =    91 MB

siesta:                 ==============================
                            Begin CG move =      2
                        ==============================

outcoor: Atomic coordinates (Ang):                          
    0.06383445    0.06383421    0.06383372   1       1  Si
    1.37999031    1.37999041    1.37999063   1       2  Si
    2.74831561    2.74831563    0.03727462   1       3  Si
    4.06138117    4.06138113    1.36827527   1       4  Si
    2.74831555    0.03727522    2.74831560   1       5  Si
    4.06138084    1.36827469    4.06138168   1       6  Si
    0.03727537    2.74831550    2.74831547   1       7  Si
    1.36827496    4.06138072    4.06138158   1       8  Si
 Kpoints in:          108 . Kpoints trimmed:          108

siesta: k-grid: Number of k-points =   108
siesta: k-grid: Cutoff (effective) =    16.182 Ang
siesta: k-grid: Supercell and displacements
siesta: k-grid:    0   6   0      0.500
siesta: k-grid:    6   0   0      0.500
siesta: k-grid:    0   0   6      0.500
Naive supercell factors:     5    5    5

superc: Internal auxiliary supercell:     5 x     5 x     5  =     125
superc: Number of atoms, orbitals, and projectors:   1000  13000  16000

outcell: Unit cell vectors (Ang):
        5.393927   -0.022756   -0.022756
       -0.022756    5.393926   -0.022756
       -0.022756   -0.022756    5.393927

outcell: Cell vector modules (Ang)   :    5.394023    5.394022    5.394023
outcell: Cell angles (23,13,12) (deg):     90.4824     90.4824     90.4824
outcell: Cell volume (Ang**3)        :    156.9249
New_DM. Step:     3
Re-using DM from previous geometry...
Re-using DM without extrapolation (not allowed)
Density Matrix sparsity pattern changed.

siesta: E_KS(eV) =             -861.6761

siesta: Atomic forces (eV/Ang):
----------------------------------------
   Tot    0.001249    0.001260    0.001245
----------------------------------------
   Max    0.615771
   Res    0.444901    sqrt( Sum f_i^2 / 3N )
----------------------------------------
   Max    0.615771    constrained

Stress-tensor-Voigt (kbar):      -64.08      -64.08      -64.08        4.49        4.49        4.49
(Free)E + p*V (eV/cell)     -855.5992
Target enthalpy (eV/cell)     -861.6761

siesta: Stress tensor (static) (eV/Ang**3):
        -0.039995    0.002802    0.002801
         0.002802   -0.039995    0.002801
         0.002801    0.002801   -0.039996

siesta: Pressure (static):         64.08041602  kBar

siesta: Stress tensor (total) (eV/Ang**3):
        -0.039995    0.002802    0.002801
         0.002802   -0.039995    0.002801
         0.002801    0.002801   -0.039996

siesta: Pressure (total):         64.08041602  kBar

mulliken: Mulliken Atomic and Orbital Populations:

Species: Si                  
Atom  Qatom  Qorb
               3s      3s      3py     3pz     3px     3py     3pz     3px     
               3Pdxy   3Pdyz   3Pdz2   3Pdxz   3Pdx2-y2
   1  4.018   0.548   0.617   0.154   0.154   0.154   0.597   0.597   0.597
              0.140   0.140   0.089   0.140   0.089
   2  3.988   0.640   0.570   0.189   0.189   0.189   0.557   0.557   0.557
              0.128   0.128   0.078   0.128   0.078
   3  3.994   0.606   0.587   0.164   0.193   0.164   0.579   0.561   0.579
              0.134   0.131   0.079   0.131   0.084
   4  4.004   0.575   0.603   0.174   0.141   0.174   0.579   0.599   0.579
              0.134   0.137   0.088   0.137   0.083
   5  3.994   0.606   0.587   0.193   0.164   0.164   0.561   0.579   0.579
              0.131   0.131   0.083   0.134   0.080
   6  4.004   0.575   0.603   0.141   0.174   0.174   0.599   0.579   0.579
              0.137   0.137   0.084   0.134   0.087
   7  3.994   0.606   0.587   0.164   0.164   0.193   0.579   0.579   0.561
              0.131   0.134   0.083   0.131   0.080
   8  4.004   0.575   0.603   0.174   0.174   0.141   0.579   0.579   0.599
              0.137   0.134   0.084   0.137   0.087

mulliken: Qtot =       32.000

* Maximum dynamic memory allocated =    91 MB

siesta:                 ==============================
                            Begin CG move =      2
                        ==============================

outcoor: Atomic coordinates (Ang):                          
    0.06383445    0.06383421    0.06383372   1       1  Si
    1.37999031    1.37999041    1.37999063   1       2  Si
    2.74831561    2.74831563    0.03727462   1       3  Si
    4.06138117    4.06138113    1.36827527   1       4  Si
    2.74831555    0.03727522    2.74831560   1       5  Si
    4.06138084    1.36827469    4.06138168   1       6  Si
    0.03727537    2.74831550    2.74831547   1       7  Si
    1.36827496    4.06138072    4.06138158   1       8  Si
 Kpoints in:          108 . Kpoints trimmed:          108

siesta: k-grid: Number of k-points =   108
siesta: k-grid: Cutoff (effective) =    16.182 Ang
siesta: k-grid: Supercell and displacements
siesta: k-grid:    0   6   0      0.500
siesta: k-grid:    6   0   0      0.500
siesta: k-grid:    0   0   6      0.500
Naive supercell factors:     5    5    5

superc: Internal auxiliary supercell:     5 x     5 x     5  =     125
superc: Number of atoms, orbitals, and projectors:   1000  13000  16000

outcell: Unit cell vectors (Ang):
        5.393927   -0.022756   -0.022756
       -0.022756    5.393926   -0.022756
       -0.022756   -0.022756    5.393927

outcell: Cell vector modules (Ang)   :    5.394023    5.394022    5.394023
outcell: Cell angles (23,13,12) (deg):     90.4824     90.4824     90.4824
outcell: Cell volume (Ang**3)        :    156.9249
New_DM. Step:     3
Re-using DM from previous geometry...
Re-using DM without extrapolation (not allowed)
Density Matrix sparsity pattern changed.

InitMesh: MESH =    36 x    36 x    36 =       46656
InitMesh: Mesh cutoff (required, used) =   100.000   123.124 Ry

InitMesh: MESH =    36 x    36 x    36 =       46656
InitMesh: Mesh cutoff (required, used) =   100.000   123.124 Ry

siesta: iscf   Eharris(eV)      E_KS(eV)   FreeEng(eV)   dDmax  Ef(eV)
siesta:    1     -861.9368     -860.7961     -860.7961  0.0359 -5.3607

siesta: iscf   Eharris(eV)      E_KS(eV)   FreeEng(eV)   dDmax  Ef(eV)
siesta:    1     -861.9368     -860.7961     -860.7961  0.0359 -5.3607
siesta:    2     -862.1499     -861.7227     -861.7227  0.0609 -5.3856
siesta:    2     -862.1499     -861.7227     -861.7227  0.0609 -5.3856
siesta:    3     -861.8653     -861.5387     -861.5387  0.0163 -5.3641
siesta:    3     -861.8653     -861.5387     -861.5387  0.0163 -5.3641
siesta:    4     -861.8648     -861.8242     -861.8242  0.0018 -5.3647
siesta:    4     -861.8648     -861.8242     -861.8242  0.0018 -5.3647
siesta:    5     -861.8648     -861.8371     -861.8371  0.0011 -5.3647
siesta:    5     -861.8648     -861.8371     -861.8371  0.0011 -5.3647
siesta:    6     -861.8648     -861.8552     -861.8552  0.0001 -5.3645
siesta:    6     -861.8648     -861.8552     -861.8552  0.0001 -5.3645

siesta: E_KS(eV) =             -861.8584

siesta: Atomic forces (eV/Ang):
----------------------------------------
   Tot   -0.001317   -0.001314   -0.001321
----------------------------------------
   Max    0.487174
   Res    0.414556    sqrt( Sum f_i^2 / 3N )
----------------------------------------
   Max    0.487174    constrained

Stress-tensor-Voigt (kbar):      -27.71      -27.71      -27.71      -19.63      -19.63      -19.63
(Free)E + p*V (eV/cell)     -859.1444
Target enthalpy (eV/cell)     -861.8584

siesta: Stress tensor (static) (eV/Ang**3):
        -0.017295   -0.012254   -0.012254
        -0.012254   -0.017295   -0.012254
        -0.012254   -0.012254   -0.017295

siesta: Pressure (static):         27.70983342  kBar

siesta: Stress tensor (total) (eV/Ang**3):
        -0.017295   -0.012254   -0.012254
        -0.012254   -0.017295   -0.012254
        -0.012254   -0.012254   -0.017295

siesta: Pressure (total):         27.70983342  kBar

mulliken: Mulliken Atomic and Orbital Populations:

Species: Si                  
Atom  Qatom  Qorb
               3s      3s      3py     3pz     3px     3py     3pz     3px     
               3Pdxy   3Pdyz   3Pdz2   3Pdxz   3Pdx2-y2
   1  3.998   0.628   0.575   0.199   0.199   0.199   0.553   0.553   0.553
              0.128   0.128   0.078   0.128   0.078
   2  4.000   0.616   0.582   0.196   0.196   0.196   0.557   0.557   0.557
              0.129   0.129   0.079   0.129   0.079
   3  4.000   0.613   0.583   0.195   0.188   0.195   0.558   0.563   0.558
              0.129   0.130   0.080   0.130   0.079
   4  4.000   0.615   0.582   0.196   0.195   0.196   0.557   0.557   0.557
              0.129   0.129   0.079   0.129   0.079
   5  4.000   0.613   0.583   0.188   0.195   0.195   0.563   0.558   0.558
              0.130   0.130   0.079   0.129   0.080
   6  4.000   0.615   0.582   0.195   0.196   0.196   0.557   0.557   0.557
              0.129   0.129   0.079   0.129   0.079
   7  4.000   0.613   0.583   0.195   0.195   0.188   0.558   0.558   0.563
              0.130   0.129   0.079   0.130   0.080
   8  4.000   0.615   0.582   0.196   0.196   0.195   0.557   0.557   0.557
              0.129   0.129   0.079   0.129   0.079

mulliken: Qtot =       32.000

* Maximum dynamic memory allocated =    96 MB

siesta:                 ==============================
                            Begin CG move =      3
                        ==============================

outcoor: Atomic coordinates (Ang):                          
    0.05645045    0.05645023    0.05644980   1       1  Si
    1.37768937    1.37768946    1.37768965   1       2  Si
    2.74510292    2.74510295    0.03288320   1       3  Si
    4.06361660    4.06361656    1.36723459   1       4  Si
    2.74510288    0.03288373    2.74510292   1       5  Si
    4.06361630    1.36723408    4.06361705   1       6  Si
    0.03288386    2.74510283    2.74510280   1       7  Si
    1.36723431    4.06361621    4.06361696   1       8  Si
 Kpoints in:          108 . Kpoints trimmed:          108

siesta: k-grid: Number of k-points =   108
siesta: k-grid: Cutoff (effective) =    16.150 Ang
siesta: k-grid: Supercell and displacements
siesta: k-grid:    0   6   0      0.500
siesta: k-grid:    6   0   0      0.500
siesta: k-grid:    0   0   6      0.500
Naive supercell factors:     5    5    5

superc: Internal auxiliary supercell:     5 x     5 x     5  =     125
superc: Number of atoms, orbitals, and projectors:   1000  13000  16000

outcell: Unit cell vectors (Ang):
        5.383148   -0.020144   -0.020145
       -0.020144    5.383148   -0.020145
       -0.020145   -0.020145    5.383148

outcell: Cell vector modules (Ang)   :    5.383223    5.383223    5.383224
outcell: Cell angles (23,13,12) (deg):     90.4280     90.4280     90.4280
outcell: Cell volume (Ang**3)        :    155.9878
New_DM. Step:     4
Re-using DM from previous geometry...
Re-using DM without extrapolation (not allowed)

InitMesh: MESH =    36 x    36 x    36 =       46656
InitMesh: Mesh cutoff (required, used) =   100.000   123.615 Ry

siesta: E_KS(eV) =             -861.8584

siesta: Atomic forces (eV/Ang):
----------------------------------------
   Tot   -0.001317   -0.001314   -0.001321
----------------------------------------
   Max    0.487174
   Res    0.414556    sqrt( Sum f_i^2 / 3N )
----------------------------------------
   Max    0.487174    constrained

Stress-tensor-Voigt (kbar):      -27.71      -27.71      -27.71      -19.63      -19.63      -19.63
(Free)E + p*V (eV/cell)     -859.1444
Target enthalpy (eV/cell)     -861.8584

siesta: Stress tensor (static) (eV/Ang**3):
        -0.017295   -0.012254   -0.012254
        -0.012254   -0.017295   -0.012254
        -0.012254   -0.012254   -0.017295

siesta: Pressure (static):         27.70983342  kBar

siesta: Stress tensor (total) (eV/Ang**3):
        -0.017295   -0.012254   -0.012254
        -0.012254   -0.017295   -0.012254
        -0.012254   -0.012254   -0.017295

siesta: Pressure (total):         27.70983342  kBar

mulliken: Mulliken Atomic and Orbital Populations:

Species: Si                  
Atom  Qatom  Qorb
               3s      3s      3py     3pz     3px     3py     3pz     3px     
               3Pdxy   3Pdyz   3Pdz2   3Pdxz   3Pdx2-y2
   1  3.998   0.628   0.575   0.199   0.199   0.199   0.553   0.553   0.553
              0.128   0.128   0.078   0.128   0.078
   2  4.000   0.616   0.582   0.196   0.196   0.196   0.557   0.557   0.557
              0.129   0.129   0.079   0.129   0.079
   3  4.000   0.613   0.583   0.195   0.188   0.195   0.558   0.563   0.558
              0.129   0.130   0.080   0.130   0.079
   4  4.000   0.615   0.582   0.196   0.195   0.196   0.557   0.557   0.557
              0.129   0.129   0.079   0.129   0.079
   5  4.000   0.613   0.583   0.188   0.195   0.195   0.563   0.558   0.558
              0.130   0.130   0.079   0.129   0.080
   6  4.000   0.615   0.582   0.195   0.196   0.196   0.557   0.557   0.557
              0.129   0.129   0.079   0.129   0.079
   7  4.000   0.613   0.583   0.195   0.195   0.188   0.558   0.558   0.563
              0.130   0.129   0.079   0.130   0.080
   8  4.000   0.615   0.582   0.196   0.196   0.195   0.557   0.557   0.557
              0.129   0.129   0.079   0.129   0.079

mulliken: Qtot =       32.000

* Maximum dynamic memory allocated =    96 MB

siesta:                 ==============================
                            Begin CG move =      3
                        ==============================

outcoor: Atomic coordinates (Ang):                          
    0.05645045    0.05645023    0.05644980   1       1  Si
    1.37768937    1.37768946    1.37768965   1       2  Si
    2.74510292    2.74510295    0.03288320   1       3  Si
    4.06361660    4.06361656    1.36723459   1       4  Si
    2.74510288    0.03288373    2.74510292   1       5  Si
    4.06361630    1.36723408    4.06361705   1       6  Si
    0.03288386    2.74510283    2.74510280   1       7  Si
    1.36723431    4.06361621    4.06361696   1       8  Si
 Kpoints in:          108 . Kpoints trimmed:          108

siesta: k-grid: Number of k-points =   108
siesta: k-grid: Cutoff (effective) =    16.150 Ang
siesta: k-grid: Supercell and displacements
siesta: k-grid:    0   6   0      0.500
siesta: k-grid:    6   0   0      0.500
siesta: k-grid:    0   0   6      0.500
Naive supercell factors:     5    5    5

superc: Internal auxiliary supercell:     5 x     5 x     5  =     125
superc: Number of atoms, orbitals, and projectors:   1000  13000  16000

outcell: Unit cell vectors (Ang):
        5.383148   -0.020144   -0.020145
       -0.020144    5.383148   -0.020145
       -0.020145   -0.020145    5.383148

outcell: Cell vector modules (Ang)   :    5.383223    5.383223    5.383224
outcell: Cell angles (23,13,12) (deg):     90.4280     90.4280     90.4280
outcell: Cell volume (Ang**3)        :    155.9878
New_DM. Step:     4
Re-using DM from previous geometry...
Re-using DM without extrapolation (not allowed)

InitMesh: MESH =    36 x    36 x    36 =       46656
InitMesh: Mesh cutoff (required, used) =   100.000   123.615 Ry

siesta: iscf   Eharris(eV)      E_KS(eV)   FreeEng(eV)   dDmax  Ef(eV)
siesta:    1     -861.8810     -862.0375     -862.0375  0.0063 -5.3919

siesta: iscf   Eharris(eV)      E_KS(eV)   FreeEng(eV)   dDmax  Ef(eV)
siesta:    1     -861.8810     -862.0375     -862.0375  0.0063 -5.3919
siesta:    2     -861.8884     -861.8734     -861.8734  0.0111 -5.3944
siesta:    2     -861.8884     -861.8734     -861.8734  0.0111 -5.3944
siesta:    3     -861.8785     -861.9190     -861.9190  0.0029 -5.3922
siesta:    3     -861.8785     -861.9190     -861.9190  0.0029 -5.3922
siesta:    4     -861.8784     -861.8768     -861.8768  0.0004 -5.3919
siesta:    4     -861.8784     -861.8768     -861.8768  0.0004 -5.3919

siesta: E_KS(eV) =             -861.8772

siesta: Atomic forces (eV/Ang):
----------------------------------------
   Tot    0.004732    0.004736    0.004749
----------------------------------------
   Max    0.374169
   Res    0.304802    sqrt( Sum f_i^2 / 3N )
----------------------------------------
   Max    0.374169    constrained

Stress-tensor-Voigt (kbar):      -33.39      -33.39      -33.39      -15.36      -15.36      -15.36
(Free)E + p*V (eV/cell)     -858.6266
Target enthalpy (eV/cell)     -861.8772

siesta: Stress tensor (static) (eV/Ang**3):
        -0.020839   -0.009587   -0.009588
        -0.009587   -0.020839   -0.009588
        -0.009588   -0.009588   -0.020839

siesta: Pressure (static):         33.38774944  kBar

siesta: Stress tensor (total) (eV/Ang**3):
        -0.020839   -0.009587   -0.009588
        -0.009587   -0.020839   -0.009588
        -0.009588   -0.009588   -0.020839

siesta: Pressure (total):         33.38774944  kBar

mulliken: Mulliken Atomic and Orbital Populations:

Species: Si                  
Atom  Qatom  Qorb
               3s      3s      3py     3pz     3px     3py     3pz     3px     
               3Pdxy   3Pdyz   3Pdz2   3Pdxz   3Pdx2-y2
   1  4.000   0.613   0.583   0.189   0.189   0.189   0.562   0.562   0.562
              0.130   0.130   0.080   0.130   0.080
   2  3.999   0.622   0.579   0.194   0.194   0.194   0.557   0.557   0.557
              0.129   0.129   0.079   0.129   0.079
   3  4.000   0.612   0.584   0.189   0.189   0.189   0.562   0.562   0.562
              0.130   0.130   0.080   0.130   0.080
   4  4.000   0.609   0.585   0.190   0.184   0.190   0.562   0.566   0.562
              0.130   0.131   0.081   0.131   0.080
   5  4.000   0.612   0.584   0.189   0.189   0.189   0.562   0.562   0.562
              0.130   0.130   0.080   0.130   0.080
   6  4.000   0.609   0.585   0.184   0.190   0.190   0.566   0.562   0.562
              0.131   0.131   0.080   0.130   0.081
   7  4.000   0.612   0.584   0.189   0.189   0.189   0.562   0.562   0.562
              0.130   0.130   0.080   0.130   0.080
   8  4.000   0.609   0.585   0.190   0.190   0.184   0.562   0.562   0.566
              0.131   0.130   0.080   0.131   0.081

mulliken: Qtot =       32.000

cgvc: Finished line minimization    1.  Mean atomic displacement =    0.1628

* Maximum dynamic memory allocated =    96 MB

siesta:                 ==============================
                            Begin CG move =      4
                        ==============================

outcoor: Atomic coordinates (Ang):                          
    0.04319186    0.04319217    0.04319425   1       1  Si
    1.47021353    1.47021341    1.47021249   1       2  Si
    2.76911709    2.76911678    0.06711984   1       3  Si
    4.19276064    4.19276047    1.47339165   1       4  Si
    2.76911570    0.06711807    2.76911791   1       5  Si
    4.19276081    1.47339232    4.19276044   1       6  Si
    0.06711799    2.76911597    2.76911841   1       7  Si
    1.47339214    4.19276066    4.19276008   1       8  Si
 Kpoints in:          108 . Kpoints trimmed:          108

siesta: k-grid: Number of k-points =   108
siesta: k-grid: Cutoff (effective) =    16.482 Ang
siesta: k-grid: Supercell and displacements
siesta: k-grid:    6   0   0      0.500
siesta: k-grid:    0   6   0      0.500
siesta: k-grid:    0   0   6      0.500
Naive supercell factors:     5    5    5

superc: Internal auxiliary supercell:     5 x     5 x     5  =     125
superc: Number of atoms, orbitals, and projectors:   1000  13000  16000

outcell: Unit cell vectors (Ang):
        5.493915    0.009801    0.009802
        0.009801    5.493915    0.009802
        0.009802    0.009802    5.493916

outcell: Cell vector modules (Ang)   :    5.493933    5.493933    5.493933
outcell: Cell angles (23,13,12) (deg):     89.7954     89.7954     89.7954
outcell: Cell volume (Ang**3)        :    165.8219
New_DM. Step:     5
Re-using DM from previous geometry...
Re-using DM without extrapolation (not allowed)
Density Matrix sparsity pattern changed.

InitMesh: MESH =    36 x    36 x    36 =       46656
InitMesh: Mesh cutoff (required, used) =   100.000   118.673 Ry

siesta: E_KS(eV) =             -861.8772

siesta: Atomic forces (eV/Ang):
----------------------------------------
   Tot    0.004732    0.004736    0.004749
----------------------------------------
   Max    0.374169
   Res    0.304802    sqrt( Sum f_i^2 / 3N )
----------------------------------------
   Max    0.374169    constrained

Stress-tensor-Voigt (kbar):      -33.39      -33.39      -33.39      -15.36      -15.36      -15.36
(Free)E + p*V (eV/cell)     -858.6266
Target enthalpy (eV/cell)     -861.8772

siesta: Stress tensor (static) (eV/Ang**3):
        -0.020839   -0.009587   -0.009588
        -0.009587   -0.020839   -0.009588
        -0.009588   -0.009588   -0.020839

siesta: Pressure (static):         33.38774944  kBar

siesta: Stress tensor (total) (eV/Ang**3):
        -0.020839   -0.009587   -0.009588
        -0.009587   -0.020839   -0.009588
        -0.009588   -0.009588   -0.020839

siesta: Pressure (total):         33.38774944  kBar

mulliken: Mulliken Atomic and Orbital Populations:

Species: Si                  
Atom  Qatom  Qorb
               3s      3s      3py     3pz     3px     3py     3pz     3px     
               3Pdxy   3Pdyz   3Pdz2   3Pdxz   3Pdx2-y2
   1  4.000   0.613   0.583   0.189   0.189   0.189   0.562   0.562   0.562
              0.130   0.130   0.080   0.130   0.080
   2  3.999   0.622   0.579   0.194   0.194   0.194   0.557   0.557   0.557
              0.129   0.129   0.079   0.129   0.079
   3  4.000   0.612   0.584   0.189   0.189   0.189   0.562   0.562   0.562
              0.130   0.130   0.080   0.130   0.080
   4  4.000   0.609   0.585   0.190   0.184   0.190   0.562   0.566   0.562
              0.130   0.131   0.081   0.131   0.080
   5  4.000   0.612   0.584   0.189   0.189   0.189   0.562   0.562   0.562
              0.130   0.130   0.080   0.130   0.080
   6  4.000   0.609   0.585   0.184   0.190   0.190   0.566   0.562   0.562
              0.131   0.131   0.080   0.130   0.081
   7  4.000   0.612   0.584   0.189   0.189   0.189   0.562   0.562   0.562
              0.130   0.130   0.080   0.130   0.080
   8  4.000   0.609   0.585   0.190   0.190   0.184   0.562   0.562   0.566
              0.131   0.130   0.080   0.131   0.081

mulliken: Qtot =       32.000

cgvc: Finished line minimization    1.  Mean atomic displacement =    0.1628

* Maximum dynamic memory allocated =    96 MB

siesta:                 ==============================
                            Begin CG move =      4
                        ==============================

outcoor: Atomic coordinates (Ang):                          
    0.04319186    0.04319217    0.04319425   1       1  Si
    1.47021353    1.47021341    1.47021249   1       2  Si
    2.76911709    2.76911678    0.06711984   1       3  Si
    4.19276064    4.19276047    1.47339165   1       4  Si
    2.76911570    0.06711807    2.76911791   1       5  Si
    4.19276081    1.47339232    4.19276044   1       6  Si
    0.06711799    2.76911597    2.76911841   1       7  Si
    1.47339214    4.19276066    4.19276008   1       8  Si
 Kpoints in:          108 . Kpoints trimmed:          108

siesta: k-grid: Number of k-points =   108
siesta: k-grid: Cutoff (effective) =    16.482 Ang
siesta: k-grid: Supercell and displacements
siesta: k-grid:    6   0   0      0.500
siesta: k-grid:    0   6   0      0.500
siesta: k-grid:    0   0   6      0.500
Naive supercell factors:     5    5    5

superc: Internal auxiliary supercell:     5 x     5 x     5  =     125
superc: Number of atoms, orbitals, and projectors:   1000  13000  16000

outcell: Unit cell vectors (Ang):
        5.493915    0.009801    0.009802
        0.009801    5.493915    0.009802
        0.009802    0.009802    5.493916

outcell: Cell vector modules (Ang)   :    5.493933    5.493933    5.493933
outcell: Cell angles (23,13,12) (deg):     89.7954     89.7954     89.7954
outcell: Cell volume (Ang**3)        :    165.8219
New_DM. Step:     5
Re-using DM from previous geometry...
Re-using DM without extrapolation (not allowed)
Density Matrix sparsity pattern changed.

InitMesh: MESH =    36 x    36 x    36 =       46656
InitMesh: Mesh cutoff (required, used) =   100.000   118.673 Ry

siesta: iscf   Eharris(eV)      E_KS(eV)   FreeEng(eV)   dDmax  Ef(eV)
siesta:    1     -861.7938     -860.0613     -860.0613  0.0575 -5.1557

siesta: iscf   Eharris(eV)      E_KS(eV)   FreeEng(eV)   dDmax  Ef(eV)
siesta:    1     -861.7938     -860.0613     -860.0613  0.0575 -5.1557
siesta:    2     -861.9200     -861.6559     -861.6559  0.0681 -5.1995
siesta:    2     -861.9200     -861.6559     -861.6559  0.0681 -5.1995
siesta:    3     -861.7437     -861.5072     -861.5072  0.0094 -5.1722
siesta:    3     -861.7437     -861.5072     -861.5072  0.0094 -5.1722
siesta:    4     -861.7433     -861.7063     -861.7063  0.0030 -5.1727
siesta:    4     -861.7433     -861.7063     -861.7063  0.0030 -5.1727
siesta:    5     -861.7431     -861.7269     -861.7269  0.0019 -5.1730
siesta:    5     -861.7431     -861.7269     -861.7269  0.0019 -5.1730
siesta:    6     -861.7431     -861.7353     -861.7353  0.0003 -5.1730
siesta:    6     -861.7431     -861.7353     -861.7353  0.0003 -5.1730

siesta: E_KS(eV) =             -861.7375

siesta: Atomic forces (eV/Ang):
----------------------------------------
   Tot   -0.001903   -0.001902   -0.001900
----------------------------------------
   Max    0.825199
   Res    0.584523    sqrt( Sum f_i^2 / 3N )
----------------------------------------
   Max    0.825199    constrained

Stress-tensor-Voigt (kbar):       21.46       21.46       21.46       16.71       16.71       16.71
(Free)E + p*V (eV/cell)     -863.9583
Target enthalpy (eV/cell)     -861.7375

siesta: Stress tensor (static) (eV/Ang**3):
         0.013393    0.010431    0.010432
         0.010431    0.013393    0.010432
         0.010432    0.010432    0.013393

siesta: Pressure (static):        -21.45771886  kBar

siesta: Stress tensor (total) (eV/Ang**3):
         0.013393    0.010431    0.010432
         0.010431    0.013393    0.010432
         0.010432    0.010432    0.013393

siesta: Pressure (total):        -21.45771886  kBar

mulliken: Mulliken Atomic and Orbital Populations:

Species: Si                  
Atom  Qatom  Qorb
               3s      3s      3py     3pz     3px     3py     3pz     3px     
               3Pdxy   3Pdyz   3Pdz2   3Pdxz   3Pdx2-y2
   1  3.997   0.682   0.550   0.257   0.257   0.257   0.501   0.501   0.501
              0.117   0.117   0.069   0.117   0.069
   2  4.008   0.616   0.582   0.229   0.229   0.229   0.531   0.531   0.531
              0.125   0.125   0.077   0.125   0.077
   3  4.001   0.646   0.567   0.244   0.229   0.244   0.516   0.527   0.516
              0.120   0.122   0.075   0.122   0.072
   4  3.998   0.667   0.556   0.243   0.263   0.243   0.513   0.500   0.513
              0.121   0.118   0.069   0.118   0.073
   5  4.001   0.646   0.567   0.229   0.244   0.244   0.527   0.516   0.516
              0.122   0.122   0.073   0.120   0.074
   6  3.998   0.667   0.556   0.263   0.243   0.243   0.500   0.513   0.513
              0.118   0.118   0.072   0.121   0.070
   7  4.001   0.646   0.567   0.244   0.244   0.229   0.516   0.516   0.527
              0.122   0.120   0.073   0.122   0.074
   8  3.998   0.667   0.556   0.243   0.243   0.263   0.513   0.513   0.500
              0.118   0.121   0.072   0.118   0.070

mulliken: Qtot =       32.000

* Maximum dynamic memory allocated =    96 MB

siesta:                 ==============================
                            Begin CG move =      5
                        ==============================

outcoor: Atomic coordinates (Ang):                          
    0.05107857    0.05107857    0.05107917   1       1  Si
    1.41560150    1.41560150    1.41560124   1       2  Si
    2.75533350    2.75533338    0.04716116   1       3  Si
    4.11690986    4.11690977    1.41095635   1       4  Si
    2.75533290    0.04716076    2.75533384   1       5  Si
    4.11690976    1.41095632    4.11691004   1       6  Si
    0.04716080    2.75533299    2.75533397   1       7  Si
    1.41095639    4.11690964    4.11690985   1       8  Si
 Kpoints in:          108 . Kpoints trimmed:          108

siesta: k-grid: Number of k-points =   108
siesta: k-grid: Cutoff (effective) =    16.287 Ang
siesta: k-grid: Supercell and displacements
siesta: k-grid:    0   6   0      0.500
siesta: k-grid:    6   0   0      0.500
siesta: k-grid:    0   0   6      0.500
Naive supercell factors:     5    5    5

superc: Internal auxiliary supercell:     5 x     5 x     5  =     125
superc: Number of atoms, orbitals, and projectors:   1000  13000  16000

outcell: Unit cell vectors (Ang):
        5.428971   -0.007756   -0.007756
       -0.007756    5.428971   -0.007756
       -0.007756   -0.007756    5.428972

outcell: Cell vector modules (Ang)   :    5.428983    5.428983    5.428983
outcell: Cell angles (23,13,12) (deg):     90.1636     90.1636     90.1636
outcell: Cell volume (Ang**3)        :    160.0111
New_DM. Step:     6
Re-using DM from previous geometry...
Re-using DM without extrapolation (not allowed)
Density Matrix sparsity pattern changed.

InitMesh: MESH =    36 x    36 x    36 =       46656
InitMesh: Mesh cutoff (required, used) =   100.000   121.528 Ry

siesta: E_KS(eV) =             -861.7375

siesta: Atomic forces (eV/Ang):
----------------------------------------
   Tot   -0.001903   -0.001902   -0.001900
----------------------------------------
   Max    0.825199
   Res    0.584523    sqrt( Sum f_i^2 / 3N )
----------------------------------------
   Max    0.825199    constrained

Stress-tensor-Voigt (kbar):       21.46       21.46       21.46       16.71       16.71       16.71
(Free)E + p*V (eV/cell)     -863.9583
Target enthalpy (eV/cell)     -861.7375

siesta: Stress tensor (static) (eV/Ang**3):
         0.013393    0.010431    0.010432
         0.010431    0.013393    0.010432
         0.010432    0.010432    0.013393

siesta: Pressure (static):        -21.45771886  kBar

siesta: Stress tensor (total) (eV/Ang**3):
         0.013393    0.010431    0.010432
         0.010431    0.013393    0.010432
         0.010432    0.010432    0.013393

siesta: Pressure (total):        -21.45771886  kBar

mulliken: Mulliken Atomic and Orbital Populations:

Species: Si                  
Atom  Qatom  Qorb
               3s      3s      3py     3pz     3px     3py     3pz     3px     
               3Pdxy   3Pdyz   3Pdz2   3Pdxz   3Pdx2-y2
   1  3.997   0.682   0.550   0.257   0.257   0.257   0.501   0.501   0.501
              0.117   0.117   0.069   0.117   0.069
   2  4.008   0.616   0.582   0.229   0.229   0.229   0.531   0.531   0.531
              0.125   0.125   0.077   0.125   0.077
   3  4.001   0.646   0.567   0.244   0.229   0.244   0.516   0.527   0.516
              0.120   0.122   0.075   0.122   0.072
   4  3.998   0.667   0.556   0.243   0.263   0.243   0.513   0.500   0.513
              0.121   0.118   0.069   0.118   0.073
   5  4.001   0.646   0.567   0.229   0.244   0.244   0.527   0.516   0.516
              0.122   0.122   0.073   0.120   0.074
   6  3.998   0.667   0.556   0.263   0.243   0.243   0.500   0.513   0.513
              0.118   0.118   0.072   0.121   0.070
   7  4.001   0.646   0.567   0.244   0.244   0.229   0.516   0.516   0.527
              0.122   0.120   0.073   0.122   0.074
   8  3.998   0.667   0.556   0.243   0.243   0.263   0.513   0.513   0.500
              0.118   0.121   0.072   0.118   0.070

mulliken: Qtot =       32.000

* Maximum dynamic memory allocated =    96 MB

siesta:                 ==============================
                            Begin CG move =      5
                        ==============================

outcoor: Atomic coordinates (Ang):                          
    0.05107857    0.05107857    0.05107917   1       1  Si
    1.41560150    1.41560150    1.41560124   1       2  Si
    2.75533350    2.75533338    0.04716116   1       3  Si
    4.11690986    4.11690977    1.41095635   1       4  Si
    2.75533290    0.04716076    2.75533384   1       5  Si
    4.11690976    1.41095632    4.11691004   1       6  Si
    0.04716080    2.75533299    2.75533397   1       7  Si
    1.41095639    4.11690964    4.11690985   1       8  Si
 Kpoints in:          108 . Kpoints trimmed:          108

siesta: k-grid: Number of k-points =   108
siesta: k-grid: Cutoff (effective) =    16.287 Ang
siesta: k-grid: Supercell and displacements
siesta: k-grid:    0   6   0      0.500
siesta: k-grid:    6   0   0      0.500
siesta: k-grid:    0   0   6      0.500
Naive supercell factors:     5    5    5

superc: Internal auxiliary supercell:     5 x     5 x     5  =     125
superc: Number of atoms, orbitals, and projectors:   1000  13000  16000

outcell: Unit cell vectors (Ang):
        5.428971   -0.007756   -0.007756
       -0.007756    5.428971   -0.007756
       -0.007756   -0.007756    5.428972

outcell: Cell vector modules (Ang)   :    5.428983    5.428983    5.428983
outcell: Cell angles (23,13,12) (deg):     90.1636     90.1636     90.1636
outcell: Cell volume (Ang**3)        :    160.0111
New_DM. Step:     6
Re-using DM from previous geometry...
Re-using DM without extrapolation (not allowed)
Density Matrix sparsity pattern changed.

InitMesh: MESH =    36 x    36 x    36 =       46656
InitMesh: Mesh cutoff (required, used) =   100.000   121.528 Ry

siesta: iscf   Eharris(eV)      E_KS(eV)   FreeEng(eV)   dDmax  Ef(eV)
siesta:    1     -861.9749     -862.8305     -862.8305  0.0311 -5.3462

siesta: iscf   Eharris(eV)      E_KS(eV)   FreeEng(eV)   dDmax  Ef(eV)
siesta:    1     -861.9749     -862.8305     -862.8305  0.0311 -5.3462
siesta:    2     -862.0126     -861.9319     -861.9319  0.0357 -5.3359
siesta:    2     -862.0126     -861.9319     -861.9319  0.0357 -5.3359
siesta:    3     -861.9593     -862.0287     -862.0287  0.0048 -5.3375
siesta:    3     -861.9593     -862.0287     -862.0287  0.0048 -5.3375
siesta:    4     -861.9591     -861.9498     -861.9498  0.0018 -5.3369
siesta:    4     -861.9591     -861.9498     -861.9498  0.0018 -5.3369
siesta:    5     -861.9590     -861.9489     -861.9489  0.0011 -5.3368
siesta:    5     -861.9590     -861.9489     -861.9489  0.0011 -5.3368
siesta:    6     -861.9590     -861.9572     -861.9572  0.0001 -5.3367
siesta:    6     -861.9590     -861.9572     -861.9572  0.0001 -5.3367

siesta: E_KS(eV) =             -861.9583

siesta: Atomic forces (eV/Ang):
----------------------------------------
   Tot    0.005678    0.005678    0.005689
----------------------------------------
   Max    0.195345
   Res    0.131542    sqrt( Sum f_i^2 / 3N )
----------------------------------------
   Max    0.195345    constrained

Stress-tensor-Voigt (kbar):       -6.73       -6.73       -6.73        1.00        1.00        1.00
(Free)E + p*V (eV/cell)     -861.2866
Target enthalpy (eV/cell)     -861.9583

siesta: Stress tensor (static) (eV/Ang**3):
        -0.004198    0.000624    0.000624
         0.000624   -0.004198    0.000624
         0.000624    0.000624   -0.004198

siesta: Pressure (static):          6.72580952  kBar

siesta: Stress tensor (total) (eV/Ang**3):
        -0.004198    0.000624    0.000624
         0.000624   -0.004198    0.000624
         0.000624    0.000624   -0.004198

siesta: Pressure (total):          6.72580952  kBar

mulliken: Mulliken Atomic and Orbital Populations:

Species: Si                  
Atom  Qatom  Qorb
               3s      3s      3py     3pz     3px     3py     3pz     3px     
               3Pdxy   3Pdyz   3Pdz2   3Pdxz   3Pdx2-y2
   1  3.999   0.645   0.566   0.219   0.219   0.219   0.536   0.536   0.536
              0.124   0.124   0.075   0.124   0.075
   2  4.002   0.622   0.578   0.209   0.209   0.209   0.546   0.546   0.546
              0.127   0.127   0.078   0.127   0.078
   3  4.001   0.628   0.575   0.214   0.206   0.214   0.542   0.547   0.542
              0.126   0.127   0.078   0.127   0.076
   4  3.999   0.635   0.572   0.213   0.218   0.213   0.541   0.538   0.541
              0.126   0.125   0.076   0.125   0.077
   5  4.001   0.628   0.575   0.206   0.214   0.214   0.547   0.542   0.542
              0.127   0.127   0.077   0.126   0.077
   6  3.999   0.635   0.572   0.218   0.213   0.213   0.538   0.541   0.541
              0.125   0.125   0.076   0.126   0.076
   7  4.001   0.628   0.575   0.214   0.214   0.206   0.542   0.542   0.547
              0.127   0.126   0.077   0.127   0.077
   8  3.999   0.635   0.572   0.213   0.213   0.218   0.541   0.541   0.538
              0.125   0.126   0.076   0.125   0.076

mulliken: Qtot =       32.000

cgvc: Finished line minimization    2.  Mean atomic displacement =    0.0673

* Maximum dynamic memory allocated =    96 MB

siesta:                 ==============================
                            Begin CG move =      6
                        ==============================

outcoor: Atomic coordinates (Ang):                          
    0.05212152    0.05212189    0.05212280   1       1  Si
    1.42082881    1.42082853    1.42082968   1       2  Si
    2.79648558    2.79648575    0.05814256   1       3  Si
    4.16940619    4.16940637    1.41784459   1       4  Si
    2.79648676    0.05814189    2.79648559   1       5  Si
    4.16940481    1.41784283    4.16940488   1       6  Si
    0.05814209    2.79648698    2.79648611   1       7  Si
    1.41784323    4.16940463    4.16940492   1       8  Si
 Kpoints in:          108 . Kpoints trimmed:          108

siesta: k-grid: Number of k-points =   108
siesta: k-grid: Cutoff (effective) =    16.452 Ang
siesta: k-grid: Supercell and displacements
siesta: k-grid:    6   0   0      0.500
siesta: k-grid:    0   6   0      0.500
siesta: k-grid:    0   0   6      0.500
Naive supercell factors:     5    5    5

superc: Internal auxiliary supercell:     5 x     5 x     5  =     125
superc: Number of atoms, orbitals, and projectors:   1000  13000  16000

outcell: Unit cell vectors (Ang):
        5.483883   -0.001036   -0.001037
       -0.001036    5.483883   -0.001037
       -0.001037   -0.001037    5.483883

outcell: Cell vector modules (Ang)   :    5.483883    5.483883    5.483883
outcell: Cell angles (23,13,12) (deg):     90.0217     90.0217     90.0217
outcell: Cell volume (Ang**3)        :    164.9167
New_DM. Step:     7
Re-using DM from previous geometry...
Re-using DM without extrapolation (not allowed)
Density Matrix sparsity pattern changed.

InitMesh: MESH =    36 x    36 x    36 =       46656
InitMesh: Mesh cutoff (required, used) =   100.000   119.105 Ry

siesta: E_KS(eV) =             -861.9583

siesta: Atomic forces (eV/Ang):
----------------------------------------
   Tot    0.005678    0.005678    0.005689
----------------------------------------
   Max    0.195345
   Res    0.131542    sqrt( Sum f_i^2 / 3N )
----------------------------------------
   Max    0.195345    constrained

Stress-tensor-Voigt (kbar):       -6.73       -6.73       -6.73        1.00        1.00        1.00
(Free)E + p*V (eV/cell)     -861.2866
Target enthalpy (eV/cell)     -861.9583

[...]
         10.40  10.95  11.03  11.30  11.44  11.75  12.00  12.43  13.02  13.28
         14.09  14.25  14.50  14.61  14.70  15.73  16.18  16.40  16.49  17.14
         17.69  17.83  18.69  18.87  19.46  20.80  21.84  22.23  23.24  23.42
         23.80  23.99  24.76  25.18  26.38  26.60  32.99  37.59  38.84  41.08
         44.28  53.99  54.38  56.74  58.32  64.14  65.75  67.64  68.04  69.33
         73.34  86.64  89.17  90.98
  93  1 -16.56 -15.89 -14.72 -14.36 -12.50 -12.10 -10.67  -9.94  -9.67  -9.62
         -8.57  -8.32  -8.12  -7.86  -7.61  -6.67  -3.53  -3.52  -3.05  -2.41
         -2.19  -1.85  -1.85  -1.06  -1.05  -0.84  -0.65  -0.52   0.46   0.50
          1.09   1.89   1.92   1.97   2.50   3.45   3.88   3.96   4.57   5.56
          5.63   5.65   7.49   7.77   8.18   8.44   8.93   9.22   9.45  10.16
         10.40  10.99  11.04  11.30  11.47  11.73  11.99  12.46  13.03  13.35
         14.08  14.32  14.52  14.61  14.69  15.65  16.12  16.40  16.50  17.13
         17.69  17.81  18.68  18.85  19.42  20.77  21.84  22.27  23.22  23.41
         23.78  23.99  24.80  25.14  26.39  26.54  32.78  37.57  38.82  41.19
         43.90  54.25  54.64  57.01  58.41  63.97  65.73  67.52  67.89  69.24
         73.18  86.52  89.02  91.10
  94  1 -16.35 -15.71 -14.79 -14.79 -12.43 -12.43 -11.37 -10.56  -9.18  -9.18
         -8.14  -7.84  -7.84  -7.52  -7.01  -6.98  -3.64  -3.44  -3.28  -3.28
         -2.33  -1.68  -1.68  -1.51  -1.36  -0.68  -0.50   0.34   0.34   0.45
          0.73   0.73   2.70   2.70   3.22   3.23   4.75   4.89   5.03   5.28
          5.36   5.36   6.40   6.40   7.19   8.18   8.74   9.12   9.13   9.19
          9.30   9.31  11.13  11.48  11.48  11.77  13.10  13.28  13.52  13.52
         13.68  14.75  15.01  15.01  16.18  16.18  16.63  16.67  17.29  17.43
         17.43  17.86  17.86  19.21  19.24  19.24  20.84  22.20  22.34  24.04
         24.57  24.57  25.36  27.27  28.05  28.05  32.48  33.51  36.29  36.29
         41.53  49.38  56.10  56.10  56.99  62.02  64.78  68.62  68.62  69.74
         81.22  86.71  86.71  94.96
  95  1 -15.94 -15.40 -15.40 -15.03 -12.47 -12.06 -12.06 -11.41  -8.69  -8.27
         -8.27  -7.56  -7.28  -7.24  -7.24  -6.69  -3.55  -3.48  -3.09  -3.09
         -2.38  -2.38  -2.04  -2.00  -1.53  -1.18  -1.03  -1.03   1.26   1.26
          2.02   2.20   2.45   3.02   3.40   3.86   3.86   4.22   4.22   4.47
          5.12   6.90   6.90   7.09   7.09   7.65   8.01   8.57   8.77   8.78
          8.92   9.28   9.35  10.11  10.56  10.56  13.88  14.09  14.09  15.08
         15.08  15.12  15.62  15.87  15.87  15.96  16.52  16.52  17.71  18.41
         18.46  18.46  19.03  19.03  19.38  19.85  20.55  20.55  21.23  21.99
         26.92  27.19  27.19  28.89  29.07  32.48  32.48  34.54  39.87  41.55
         41.56  48.09  55.60  55.61  58.19  59.33  64.49  76.39  76.40  81.06
         81.76  81.77  90.47  92.56
  96  1 -15.95 -15.39 -15.38 -15.03 -12.47 -12.07 -12.06 -11.42  -8.70  -8.28
         -8.26  -7.54  -7.27  -7.26  -7.24  -6.67  -3.51  -3.46  -3.11  -3.09
         -2.41  -2.39  -2.02  -1.99  -1.54  -1.17  -1.06  -1.03   1.19   1.22
          2.03   2.22   2.38   3.06   3.44   3.87   3.88   4.24   4.25   4.48
          5.09   6.92   6.94   7.13   7.18   7.65   7.97   8.60   8.78   8.82
          8.93   9.22   9.27  10.08  10.48  10.54  13.84  14.08  14.12  15.08
         15.10  15.12  15.58  15.79  15.89  15.96  16.57  16.59  17.74  18.40
         18.42  18.44  19.05  19.11  19.40  19.88  20.56  20.57  21.26  21.88
         27.00  27.16  27.25  28.92  29.07  32.47  32.50  34.65  39.89  41.57
         41.60  48.20  55.42  55.51  58.46  59.46  65.03  76.70  76.73  80.86
         81.65  81.84  90.33  93.59
  97  1 -15.95 -15.40 -15.39 -15.01 -12.47 -12.07 -12.07 -11.43  -8.71  -8.26
         -8.26  -7.53  -7.29  -7.24  -7.24  -6.67  -3.52  -3.49  -3.07  -3.07
         -2.39  -2.39  -2.04  -1.98  -1.57  -1.19  -1.04  -1.04   1.20   1.20
          1.99   2.18   2.42   3.05   3.44   3.88   3.88   4.27   4.27   4.50
          5.17   6.94   6.95   7.09   7.09   7.64   8.01   8.62   8.81   8.81
          8.96   9.20   9.30  10.05  10.48  10.48  13.82  14.06  14.06  15.06
         15.06  15.17  15.57  15.86  15.90  16.01  16.60  16.60  17.77  18.39
         18.45  18.46  19.03  19.03  19.40  19.88  20.59  20.59  21.25  21.95
         26.91  27.22  27.22  28.96  29.06  32.62  32.62  34.58  39.85  41.63
         41.63  47.95  55.98  55.98  58.15  59.35  64.83  76.72  76.73  81.18
         81.85  81.85  90.28  93.04
  98  1 -16.12 -15.50 -15.50 -14.95 -12.01 -11.37 -11.37 -10.57  -9.73  -9.22
         -9.22  -8.59  -7.42  -7.34  -7.34  -6.61  -3.64  -2.91  -2.67  -2.67
         -2.00  -2.00  -1.63  -1.42  -0.33  -0.33  -0.30  -0.17   0.23   0.23
          0.50   0.96   1.56   1.93   2.34   2.61   2.61   4.05   4.05   5.20
          5.78   7.64   7.64   7.96   8.54   8.55   9.37   9.55   9.77   9.91
          9.91  10.59  11.12  11.62  11.62  12.04  12.71  12.85  12.89  12.89
         13.51  13.73  13.73  14.52  15.01  15.27  15.27  15.51  17.61  18.41
         18.41  19.20  20.01  20.01  20.48  20.49  21.76  21.76  21.91  22.46
         25.38  26.00  26.21  26.21  27.94  36.02  36.03  41.14  44.84  44.84
         50.95  51.66  54.47  54.47  59.70  61.47  63.07  70.09  70.10  81.45
         81.45  82.63  85.01  88.03
  99  1 -16.12 -15.50 -15.50 -14.96 -12.01 -11.37 -11.37 -10.56  -9.72  -9.22
         -9.22  -8.61  -7.41  -7.34  -7.34  -6.62  -3.64  -2.92  -2.67  -2.67
         -2.02  -2.02  -1.63  -1.44  -0.29  -0.28  -0.28  -0.13   0.24   0.24
          0.52   0.97   1.52   1.91   2.35   2.57   2.57   4.05   4.05   5.17
          5.77   7.64   7.64   7.97   8.54   8.54   9.39   9.56   9.81   9.85
          9.85  10.60  11.07  11.65  11.65  12.08  12.68  12.88  12.99  12.99
         13.56  13.72  13.72  14.51  14.98  15.20  15.20  15.48  17.62  18.41
         18.41  19.18  20.01  20.01  20.46  20.47  21.73  21.73  21.90  22.49
         25.39  26.01  26.19  26.19  27.93  35.99  35.99  41.13  44.60  44.60
         50.90  51.56  54.51  54.51  59.65  61.69  62.91  69.65  69.66  81.40
         81.40  82.58  85.09  88.03
 100  1 -15.94 -15.40 -15.40 -15.03 -12.47 -12.06 -12.06 -11.41  -8.69  -8.27
         -8.27  -7.56  -7.28  -7.24  -7.24  -6.69  -3.55  -3.48  -3.09  -3.09
         -2.38  -2.38  -2.04  -2.00  -1.53  -1.18  -1.03  -1.03   1.26   1.26
          2.02   2.20   2.45   3.02   3.40   3.86   3.86   4.22   4.22   4.47
          5.12   6.90   6.90   7.09   7.09   7.65   8.01   8.57   8.77   8.78
          8.92   9.28   9.35  10.11  10.56  10.56  13.88  14.09  14.09  15.08
         15.08  15.12  15.62  15.87  15.87  15.96  16.52  16.52  17.71  18.41
         18.46  18.46  19.03  19.03  19.38  19.85  20.55  20.55  21.23  21.99
         26.92  27.19  27.19  28.89  29.07  32.48  32.48  34.54  39.87  41.55
         41.56  48.09  55.60  55.61  58.19  59.33  64.49  76.39  76.40  81.06
         81.76  81.77  90.47  92.56
 101  1 -15.61 -15.26 -15.26 -15.26 -12.57 -12.57 -12.57 -12.16  -7.48  -7.48
         -7.48  -7.06  -7.06  -7.06  -6.85  -6.85  -4.19  -3.67  -3.67  -3.67
         -2.28  -2.28  -2.28  -2.18  -2.18  -1.88  -1.88  -1.88   2.74   2.74
          2.74   3.09   4.00   4.00   4.04   4.04   4.04   5.02   5.30   5.30
          5.30   6.08   6.08   6.08   6.22   6.22   6.22   7.70   7.70   7.90
          7.90   7.90   8.71   8.71   8.72   8.79  15.97  15.97  15.97  16.09
         16.52  16.52  16.77  16.77  16.77  17.36  17.36  17.37  18.14  18.14
         18.14  19.02  19.02  19.03  19.46  19.46  19.46  20.05  20.05  22.08
         28.36  28.36  28.36  29.83  29.83  30.08  30.08  30.08  51.86  51.86
         51.86  56.89  61.12  61.14  61.14  72.04  72.04  72.05  72.55  72.55
         87.35  87.36  87.36 102.42
 102  1 -15.63 -15.26 -15.26 -15.24 -12.57 -12.57 -12.57 -12.17  -7.50  -7.48
         -7.48  -7.08  -7.06  -7.06  -6.83  -6.83  -4.15  -3.71  -3.67  -3.67
         -2.32  -2.30  -2.30  -2.18  -2.15  -1.88  -1.86  -1.86   2.69   2.69
          2.70   3.11   3.97   4.02   4.03   4.04   4.04   5.02   5.33   5.33
          5.34   6.11   6.11   6.12   6.26   6.27   6.27   7.65   7.70   7.88
          7.88   7.90   8.66   8.66   8.72   8.73  15.96  15.96  16.02  16.03
         16.49  16.53  16.73  16.73  16.76  17.40  17.42  17.42  18.16  18.16
         18.26  19.01  19.02  19.02  19.45  19.45  19.46  20.06  20.08  21.92
         28.36  28.47  28.47  29.84  29.98  30.00  30.03  30.04  51.65  51.90
         51.90  56.86  60.83  61.51  61.52  71.76  71.77  72.00  73.07  73.86
         87.67  87.67  87.78 102.86
 103  1 -15.95 -15.39 -15.38 -15.03 -12.47 -12.07 -12.06 -11.42  -8.70  -8.28
         -8.26  -7.54  -7.27  -7.26  -7.24  -6.67  -3.51  -3.46  -3.11  -3.09
         -2.41  -2.39  -2.02  -1.99  -1.54  -1.17  -1.06  -1.03   1.19   1.22
          2.03   2.22   2.38   3.06   3.44   3.87   3.88   4.24   4.25   4.48
          5.09   6.92   6.94   7.13   7.18   7.65   7.97   8.60   8.78   8.82
          8.93   9.22   9.27  10.08  10.48  10.54  13.84  14.08  14.12  15.08
         15.10  15.12  15.58  15.79  15.89  15.96  16.57  16.59  17.74  18.40
         18.42  18.44  19.05  19.11  19.40  19.88  20.56  20.57  21.26  21.88
         27.00  27.16  27.25  28.92  29.07  32.47  32.50  34.65  39.89  41.57
         41.60  48.20  55.42  55.51  58.46  59.46  65.03  76.70  76.73  80.86
         81.65  81.84  90.33  93.59
 104  1 -16.13 -15.50 -15.49 -14.97 -12.00 -11.38 -11.37 -10.57  -9.72  -9.22
         -9.21  -8.61  -7.40  -7.35  -7.34  -6.60  -3.62  -2.89  -2.70  -2.69
         -2.03  -2.01  -1.61  -1.42  -0.34  -0.32  -0.28  -0.13   0.21   0.22
          0.53   0.99   1.56   1.94   2.29   2.55   2.57   4.10   4.12   5.14
          5.72   7.69   7.71   7.96   8.53   8.55   9.34   9.54   9.75   9.87
          9.91  10.58  11.10  11.65  11.67  12.04  12.68  12.87  12.92  12.94
         13.53  13.75  13.76  14.47  15.00  15.24  15.26  15.47  17.55  18.40
         18.42  19.24  20.02  20.05  20.45  20.51  21.72  21.73  21.95  22.45
         25.42  26.02  26.17  26.19  27.95  36.01  36.03  41.15  44.63  44.68
         51.17  51.73  54.08  54.20  59.86  61.43  63.39  69.97  70.04  81.40
         81.49  82.43  84.98  87.87
 105  1 -16.13 -15.50 -15.49 -14.97 -12.00 -11.38 -11.37 -10.57  -9.72  -9.22
         -9.21  -8.61  -7.40  -7.35  -7.34  -6.60  -3.62  -2.89  -2.70  -2.69
         -2.03  -2.01  -1.61  -1.42  -0.34  -0.32  -0.28  -0.13   0.21   0.22
          0.53   0.99   1.56   1.94   2.29   2.55   2.57   4.10   4.12   5.14
          5.72   7.69   7.71   7.96   8.53   8.55   9.34   9.54   9.75   9.87
          9.91  10.58  11.10  11.65  11.67  12.04  12.68  12.87  12.92  12.94
         13.53  13.75  13.76  14.47  15.00  15.24  15.26  15.47  17.55  18.40
         18.42  19.24  20.02  20.05  20.45  20.51  21.72  21.73  21.95  22.45
         25.42  26.02  26.17  26.19  27.95  36.01  36.03  41.15  44.63  44.68
         51.17  51.73  54.08  54.20  59.86  61.43  63.39  69.97  70.04  81.40
         81.49  82.43  84.98  87.87
 106  1 -15.95 -15.39 -15.38 -15.03 -12.47 -12.07 -12.06 -11.42  -8.70  -8.28
         -8.26  -7.54  -7.27  -7.26  -7.24  -6.67  -3.51  -3.46  -3.11  -3.09
         -2.41  -2.39  -2.02  -1.99  -1.54  -1.17  -1.06  -1.03   1.19   1.22
          2.03   2.22   2.38   3.06   3.44   3.87   3.88   4.24   4.25   4.48
          5.09   6.92   6.94   7.13   7.18   7.65   7.97   8.60   8.78   8.82
          8.93   9.22   9.27  10.08  10.48  10.54  13.84  14.08  14.12  15.08
         15.10  15.12  15.58  15.79  15.89  15.96  16.57  16.59  17.74  18.40
         18.42  18.44  19.05  19.11  19.40  19.88  20.56  20.57  21.26  21.88
         27.00  27.16  27.25  28.92  29.07  32.47  32.50  34.65  39.89  41.57
         41.60  48.20  55.42  55.51  58.46  59.46  65.03  76.70  76.73  80.86
         81.65  81.84  90.33  93.59
 107  1 -15.63 -15.26 -15.26 -15.24 -12.57 -12.57 -12.57 -12.17  -7.50  -7.48
         -7.48  -7.08  -7.06  -7.06  -6.83  -6.83  -4.15  -3.71  -3.67  -3.67
         -2.32  -2.30  -2.30  -2.18  -2.15  -1.88  -1.86  -1.86   2.69   2.69
          2.70   3.11   3.97   4.02   4.03   4.04   4.04   5.02   5.33   5.33
          5.34   6.11   6.11   6.12   6.26   6.27   6.27   7.65   7.70   7.88
          7.88   7.90   8.66   8.66   8.72   8.73  15.96  15.96  16.02  16.03
         16.49  16.53  16.73  16.73  16.76  17.40  17.42  17.42  18.16  18.16
         18.26  19.01  19.02  19.02  19.45  19.45  19.46  20.06  20.08  21.92
         28.36  28.47  28.47  29.84  29.98  30.00  30.03  30.04  51.65  51.90
         51.90  56.86  60.83  61.51  61.52  71.76  71.77  72.00  73.07  73.86
         87.67  87.67  87.78 102.86
 108  1 -15.63 -15.26 -15.26 -15.24 -12.57 -12.57 -12.57 -12.17  -7.50  -7.48
         -7.48  -7.08  -7.06  -7.06  -6.83  -6.83  -4.15  -3.71  -3.67  -3.67
         -2.32  -2.30  -2.30  -2.18  -2.15  -1.88  -1.86  -1.86   2.69   2.69
          2.70   3.11   3.97   4.02   4.03   4.04   4.04   5.02   5.33   5.33
          5.34   6.11   6.11   6.12   6.26   6.27   6.27   7.65   7.70   7.88
          7.88   7.90   8.66   8.66   8.72   8.73  15.96  15.96  16.02  16.03
         16.49  16.53  16.73  16.73  16.76  17.40  17.42  17.42  18.16  18.16
         18.26  19.01  19.02  19.02  19.45  19.45  19.46  20.06  20.08  21.92
         28.36  28.47  28.47  29.84  29.98  30.00  30.03  30.04  51.65  51.90
         51.90  56.86  60.83  61.51  61.52  71.76  71.77  72.00  73.07  73.86
         87.67  87.67  87.78 102.86
siesta: Fermi energy =      -5.335348 eV

siesta: Program's energy decomposition (eV):
siesta: Ebs     =      -343.991956
siesta: Eions   =      1510.441798
siesta: Ena     =       465.373847
siesta: Ekin    =       324.924486
siesta: Enl     =       110.977742
siesta: DEna    =         5.166395
siesta: DUscf   =         1.525285
siesta: DUext   =         0.000000
siesta: Exc     =      -259.497395
siesta: eta*DQ  =         0.000000
siesta: Emadel  =         0.000000
siesta: Emeta   =         0.000000
siesta: Emolmec =         0.000000
siesta: Ekinion =         0.000000
siesta: Eharris =      -861.971281
siesta: Etot    =      -861.971438
siesta: FreeEng =      -861.971438

siesta: Final energy (eV):
siesta:  Band Struct. =    -343.991956
siesta:       Kinetic =     324.924486
siesta:       Hartree =      57.924817
siesta:    Ext. field =       0.000000
siesta:   Exch.-corr. =    -259.497395
siesta:  Ion-electron =    -446.412075
siesta:       Ion-ion =    -538.911272
siesta:       Ekinion =       0.000000
siesta:         Total =    -861.971438

siesta: Stress tensor (static) (eV/Ang**3):
siesta:     0.000504   -0.001218   -0.001218
siesta:    -0.001218    0.000504   -0.001218
siesta:    -0.001218   -0.001218    0.000504

siesta: Constrained stress tensor (static) (eV/Ang**3):
siesta:     0.000504   -0.001218   -0.001218
siesta:    -0.001218    0.000504   -0.001218
siesta:    -0.001218   -0.001218    0.000504

siesta: Cell volume =        161.371222 Ang**3

siesta: Pressure (static):
siesta:                Solid            Molecule  Units
siesta:          -0.00000549         -0.00001745  Ry/Bohr**3
siesta:          -0.00050389         -0.00160238  eV/Ang**3
siesta:          -0.80732803         -2.56731635  kBar
(Free)E+ p_basis*V_orbitals  =        -852.997835
(Free)Eharris+ p_basis*V_orbitals  =        -852.998045

* Maximum dynamic memory allocated : Node    0 =    96 MB

* Maximum memory occured during init_pulay_arrrays            

timer: CPU execution times:
timer:  Routine       Calls   Time/call    Tot.time        %
timer:  siesta            1    1030.656    1030.656   100.00
timer:  Setup             1       0.136       0.136     0.01
timer:  bands             3       0.556       1.668     0.16
timer:  writewave         3       0.005       0.016     0.00
timer:  KSV_init          1       0.000       0.000     0.00
timer:  IterMD           10     102.874    1028.744    99.81
timer:  hsparse          10       0.218       2.176     0.21
timer:  overlap          10       0.128       1.280     0.12
timer:  IterSCF          51      16.604     846.797    82.16
timer:  kinefsm          20       0.126       2.528     0.25
timer:  nlefsm           20       4.661      93.222     9.04
timer:  DHSCF            61       9.669     589.809    57.23
timer:  DHSCF1           10       0.049       0.488     0.05
timer:  DHSCF2           10       2.199      21.985     2.13
timer:  REORD           386       0.000       0.044     0.00
timer:  POISON           71       0.004       0.308     0.03
timer:  DHSCF3           61       8.601     524.665    50.91
timer:  rhoofd           61       3.900     237.923    23.08
timer:  cellXC           61       0.012       0.736     0.07
timer:  vmat             61       4.683     285.650    27.72
timer:  MolMec           20       0.000       0.000     0.00
timer:  diagon           51       6.583     335.745    32.58
timer:  c-eigval       5609       0.018     100.543     9.76
timer:  c-buildHS      5609       0.013      75.141     7.29
timer:  cdiag         11118       0.007      77.258     7.50
timer:  cdiag1        11118       0.000       5.534     0.54
timer:  cdiag2        11118       0.002      20.344     1.97
timer:  cdiag3        11118       0.004      49.531     4.81
timer:  cdiag4        11118       0.000       1.437     0.14
timer:  c-eigvec       5509       0.023     125.617    12.19
timer:  c-buildD       5508       0.020     110.714    10.74
timer:  DHSCF4           10       4.264      42.639     4.14
timer:  dfscf            10       4.101      41.015     3.98
timer:  overfsm          10       0.120       1.204     0.12
timer:  optical           1       0.000       0.000     0.00
  

elaps: ELAPSED times:
elaps:  Routine       Calls   Time/call    Tot.time        %
elaps:  siesta            1    1035.727    1035.727   100.00
elaps:  Setup             1       0.139       0.139     0.01
elaps:  bands             3       0.557       1.672     0.16
elaps:  writewave         3       0.007       0.021     0.00
elaps:  KSV_init          1       0.000       0.000     0.00
elaps:  IterMD           10     103.381    1033.807    99.81
elaps:  hsparse          10       0.218       2.178     0.21
elaps:  overlap          10       0.129       1.286     0.12
elaps:  IterSCF          51      16.686     850.993    82.16
elaps:  kinefsm          20       0.127       2.549     0.25
elaps:  nlefsm           20       4.683      93.667     9.04
elaps:  DHSCF            61       9.715     592.591    57.21
elaps:  DHSCF1           10       0.049       0.490     0.05
elaps:  DHSCF2           10       2.207      22.074     2.13
elaps:  REORD           386       0.000       0.022     0.00
elaps:  POISON           71       0.005       0.337     0.03
elaps:  DHSCF3           61       8.643     527.196    50.90
elaps:  rhoofd           61       3.919     239.045    23.08
elaps:  cellXC           61       0.012       0.738     0.07
elaps:  vmat             61       4.706     287.047    27.71
elaps:  MolMec           20       0.000       0.000     0.00
elaps:  diagon           51       6.618     337.505    32.59
elaps:  c-eigval       5609       0.018     101.100     9.76
elaps:  c-buildHS      5609       0.013      75.515     7.29
elaps:  cdiag         11118       0.007      77.870     7.52
elaps:  cdiag1        11118       0.001       5.828     0.56
elaps:  cdiag2        11118       0.002      20.427     1.97
elaps:  cdiag3        11118       0.004      49.812     4.81
elaps:  cdiag4        11118       0.000       1.529     0.15
elaps:  c-eigvec       5509       0.023     126.518    12.22
elaps:  c-buildD       5508       0.020     111.113    10.73
elaps:  DHSCF4           10       4.281      42.811     4.13
elaps:  dfscf            10       4.118      41.181     3.98
elaps:  overfsm          10       0.121       1.206     0.12
elaps:  optical           1       0.000       0.000     0.00
  
>> End of run:   9-MAY-2013  16:16:54
