Siesta Version:                                        siesta-3.2
Architecture  : x86_64-unknown-linux-gnu--unknown
Compiler flags: f95 -g -O2
SERIAL version

* Running in serial mode
>> Start of run:   9-MAY-2013  18:07:57
Siesta Version:                                        siesta-3.2
Architecture  : x86_64-unknown-linux-gnu--unknown
Compiler flags: f95 -g -O2
SERIAL version

* Running in serial mode
>> Start of run:   9-MAY-2013  18:07:57

                           ***********************       
                           *  WELCOME TO SIESTA  *       
                           ***********************       

reinit: Reading from standard input
************************** Dump of input data file ****************************
************************** End of input data file *****************************

reinit: -----------------------------------------------------------------------
reinit: System Name: 
reinit: -----------------------------------------------------------------------

                           ***********************       
                           *  WELCOME TO SIESTA  *       
                           ***********************       

reinit: Reading from standard input
************************** Dump of input data file ****************************
# FDF for silicon
SystemName             silicon          # Descriptive name of the system
SystemLabel            si          # Short name for naming files
NumberOfAtoms 8
NumberOfSpecies 1
%block ChemicalSpeciesLabel
1 14 Si
%endblock ChemicalSpeciesLabel
LatticeConstant  5.70 Ang
##Basis set Definition##
PAO.BasisType          split        # Type of PAO basis set
PAO.EnergyShift        50 meV
PAO.BasisSize          DZP          # (DZP) Double-z + polarization
#%block LatticeVectors
#0.500 0.500 0.000
#0.500 0.000 0.500
#0.000 0.500 0.500
#%endblock LatticeVectors
AtomicCoordinatesFormat NotScaledCartesianAng
%block AtomicCoordinatesAndAtomicSpecies
	0.00000000	0.00000000	0.00000000  1 Si  1
	1.36000000	1.36000000	1.36000000  1 Si  2
	2.72000000	2.72000000	0.00000000  1 Si  3
	4.08000000	4.08000000	1.36000000  1 Si  4
	2.72000000	0.00000000	2.72000000  1 Si  5
	4.08000000	1.36000000	4.08000000  1 Si  6
	0.00000000	2.72000000	2.72000000  1 Si  7
	1.36000000	4.08000000	4.08000000  1 Si  8
%endblock AtomicCoordinatesAndAtomicSpecies
MeshCutoff 100.0 Ry # 100, 120, 180, 260
kgrid_cutoff 30.0 Bohr # 30, 35, 40, 45
DM.Mixingweight  0.3
DM.NumberPulay    3
DM.Tolerance      1.d-3
DM.UseSaveDM      true
ElectronicTemperature 25 meV
SolutionMethod    diagon
XC.functional     LDA	    # Local Density Approximation
XC.authors        CA           # Ceperley-Alder
SpinPolarized     false
MD.TypeOfRun           CG           # Type of dynamics:
MD.VariableCell        true
MD.NumCGsteps          100          # Number of CG steps for coordinate optimization
MD.MaxCGDispl          0.2 Bohr     # Maximum atomic displacement
                                    #   in one CG step (Bohr)
MD.MaxForceTol         0.04 eV/Ang  # Tolerance in the maximum
                                    #   atomic force (Ry/Bohr)
				
##Output Specification##
WriteMDhistory         true         # Trajectory information
WriteCoorStep          true
WriteCoorXmol          true
WriteMDXmol            true
WriteEigenvalues true
WriteKbands      true
WriteBands       true
WriteWaveFunctions true
WriteMullikenPoP   1
%block BandLines
1	1.000	1.000 1.000 L
25	0.000	0.000	0.000 \Gamma
30	2.000	0.000	0.000 X
10	2.000	0.500	0.500 U
35	0.000	0.000	0.000 \Gamma
%endblock BandLines
%block WaveFuncKPoints
0.0 0.0 0.0 from 1 to 50 # > 16 = 4/2*8 (Valenzelektronen/2, Atomzahl ...)
%endblock WaveFuncKpoints
************************** End of input data file *****************************
reinit: System Label: siesta                                                      
reinit: -----------------------------------------------------------------------

initatom: Reading input for the pseudopotentials and atomic orbitals ----------
No species found!!!
ERROR STOP from Node:    0

reinit: -----------------------------------------------------------------------
reinit: System Name: silicon
reinit: -----------------------------------------------------------------------
reinit: System Label: si                                                          
reinit: -----------------------------------------------------------------------

initatom: Reading input for the pseudopotentials and atomic orbitals ----------
 Species number:            1  Label: Si Atomic number:          14
Ground state valence configuration:   3s02  3p02
Reading pseudopotential information in formatted form from Si.psf

Valence configuration for pseudopotential generation:
3s( 2.00) rc: 1.75
3p( 2.00) rc: 1.94
3d( 0.00) rc: 2.09
4f( 0.00) rc: 2.09
For Si, standard SIESTA heuristics set lmxkb to 3
 (one more than the basis l, including polarization orbitals).
Use PS.lmax or PS.KBprojectors blocks to override.

<basis_specs>
===============================================================================
Si                   Z=  14    Mass=  28.090        Charge= 0.17977+309
Lmxo=1 Lmxkb= 3    BasisType=split      Semic=F
L=0  Nsemic=0  Cnfigmx=3
          n=1  nzeta=2  polorb=0
            splnorm:   0.15000    
               vcte:    0.0000    
               rinn:    0.0000    
                rcs:    0.0000      0.0000    
            lambdas:    1.0000      1.0000    
L=1  Nsemic=0  Cnfigmx=3
          n=1  nzeta=2  polorb=1
            splnorm:   0.15000    
               vcte:    0.0000    
               rinn:    0.0000    
                rcs:    0.0000      0.0000    
            lambdas:    1.0000      1.0000    
-------------------------------------------------------------------------------
L=0  Nkbl=1  erefs: 0.17977+309
L=1  Nkbl=1  erefs: 0.17977+309
L=2  Nkbl=1  erefs: 0.17977+309
L=3  Nkbl=1  erefs: 0.17977+309
===============================================================================
</basis_specs>

atom: Called for Si                    (Z =  14)

read_vps: Pseudopotential generation method:
read_vps: ATM3      Troullier-Martins                       
Total valence charge:    4.00000

xc_check: Exchange-correlation functional:
xc_check: Ceperley-Alder
V l=0 = -2*Zval/r beyond r=  2.5494
V l=1 = -2*Zval/r beyond r=  2.5494
V l=2 = -2*Zval/r beyond r=  2.5494
V l=3 = -2*Zval/r beyond r=  2.5494
All V_l potentials equal beyond r=  2.0613
This should be close to max(r_c) in ps generation
All pots = -2*Zval/r beyond r=  2.5494

VLOCAL1: 99.0% of the norm of Vloc inside     10.216 Ry
VLOCAL1: 99.9% of the norm of Vloc inside     23.282 Ry
atom: Maximum radius for 4*pi*r*r*local-pseudopot. charge    2.45560
atom: Maximum radius for r*vlocal+2*Zval:    2.14012
GHOST: No ghost state for L =  0
GHOST: No ghost state for L =  1
GHOST: No ghost state for L =  2
GHOST: No ghost state for L =  3

KBgen: Kleinman-Bylander projectors: 
   l= 0   rc=  2.782581   el= -0.796617   Ekb=  4.840502   kbcos=  0.288423
   l= 1   rc=  2.888916   el= -0.307040   Ekb=  1.512733   kbcos=  0.296968
   l= 2   rc=  2.962054   el=  0.002313   Ekb= -2.156507   kbcos= -0.061834
   l= 3   rc=  3.192765   el=  0.003402   Ekb= -0.600958   kbcos= -0.007408

KBgen: Total number of  Kleinman-Bylander projectors:   16
atom: -------------------------------------------------------------------------

atom: SANKEY-TYPE ORBITALS:
atom: Selected multiple-zeta basis: split     

SPLIT: Orbitals with angular momentum L= 0

SPLIT: Basis orbitals for state 3s

SPLIT: PAO cut-off radius determined from an
SPLIT: energy shift=  0.003675 Ry

   izeta = 1
                 lambda =    1.000000
                     rc =    6.116033
                 energy =   -0.793486
                kinetic =    0.528761
    potential(screened) =   -1.322246
       potential(ionic) =   -3.766038

   izeta = 2
                 rmatch =    4.530823
              splitnorm =    0.150000
                 energy =   -0.697320
                kinetic =    0.853435
    potential(screened) =   -1.550756
       potential(ionic) =   -4.120809

SPLIT: Orbitals with angular momentum L= 1

SPLIT: Basis orbitals for state 3p

SPLIT: PAO cut-off radius determined from an
SPLIT: energy shift=  0.003675 Ry

   izeta = 1
                 lambda =    1.000000
                     rc =    7.853192
                 energy =   -0.303674
                kinetic =    0.798475
    potential(screened) =   -1.102149
       potential(ionic) =   -3.307324

   izeta = 2
                 rmatch =    5.397360
              splitnorm =    0.150000
                 energy =   -0.229357
                kinetic =    1.170483
    potential(screened) =   -1.399841
       potential(ionic) =   -3.814095

POLgen: Perturbative polarization orbital with L=  2

POLgen: Polarization orbital for state 3p

   izeta = 1
                     rc =    7.853192
                 energy =    0.331669
                kinetic =    1.088595
    potential(screened) =   -0.756926
       potential(ionic) =   -2.714870
atom: Total number of Sankey-type orbitals: 13

atm_pop: Valence configuration (for local Pseudopot. screening):
 3s( 2.00)                                                            
 3p( 2.00)                                                            
Vna: chval, zval:    4.00000   4.00000

Vna:  Cut-off radius for the neutral-atom potential:   7.853192

atom: _________________________________________________________________________

prinput: Basis input ----------------------------------------------------------

PAO.BasisType split     

%block ChemicalSpeciesLabel
    1   14 Si                      # Species index, atomic number, species label
%endblock ChemicalSpeciesLabel

%block PAO.Basis                 # Define Basis set
Si                    2                    # Species label, number of l-shells
 n=3   0   2                         # n, l, Nzeta 
   6.116      4.531   
   1.000      1.000   
 n=3   1   2 P   1                   # n, l, Nzeta, Polarization, NzetaPol
   7.853      5.397   
   1.000      1.000   
%endblock PAO.Basis

prinput: ----------------------------------------------------------------------

coor:   Atomic-coordinates input format  =     Cartesian coordinates
coor:                                          (in Angstroms)

siesta: Atomic coordinates (Bohr) and species
siesta:      0.00000   0.00000   0.00000  1        1
siesta:      2.57003   2.57003   2.57003  1        2
siesta:      5.14006   5.14006   0.00000  1        3
siesta:      7.71009   7.71009   2.57003  1        4
siesta:      5.14006   0.00000   5.14006  1        5
siesta:      7.71009   2.57003   7.71009  1        6
siesta:      0.00000   5.14006   5.14006  1        7
siesta:      2.57003   7.71009   7.71009  1        8

siesta: System type = bulk      

initatomlists: Number of atoms, orbitals, and projectors:      8   104   128

siesta: ******************** Simulation parameters ****************************
siesta:
siesta: The following are some of the parameters of the simulation.
siesta: A complete list of the parameters used, including default values,
siesta: can be found in file out.fdf
siesta:
redata: Non-Collinear-spin run           =     F
redata: SpinPolarized (Up/Down) run      =     F
redata: Number of spin components        =     1
redata: Long output                      =     F
redata: Number of Atomic Species         =        1
redata: Charge density info will appear in .RHO file
redata: Write Mulliken Pop.              =     Atomic and Orbital charges
redata: Mesh Cutoff                      =   100.0000  Ry
redata: Net charge of the system         =     0.0000 |e|
redata: Max. number of SCF Iter          =       50
redata: Performing Pulay mixing using    =     3 iterations
redata: Mix DM in first SCF step ?       =     F
redata: Write Pulay info on disk?        =     F
redata: Discard 1st Pulay DM after  kick =     F
redata: New DM Mixing Weight             =     0.3000
redata: New DM Occupancy tolerance       = 0.000000000001
redata: No kicks to SCF
redata: DM Mixing Weight for Kicks       =     0.5000
redata: DM Tolerance for SCF             =     0.001000
redata: Require Energy convergence for SCF =     F
redata: DM Energy tolerance for SCF      =     0.000100 eV
redata: Require Harris convergence for SCF =     F
redata: DM Harris energy tolerance for SCF =     0.000100 eV
redata: Using Saved Data (generic)   =     F
redata: Use continuation files for DM    =     T
redata: Neglect nonoverlap interactions  =     F
redata: Method of Calculation            =     Diagonalization
redata: Divide and Conquer               =     T
redata: Electronic Temperature           =     0.0018  Ry
redata: Fix the spin of the system       =     F
redata: Dynamics option                  =     CG coord. optimization
redata: Variable cell                    =     T
redata: Use continuation files for CG    =     F
redata: Max atomic displ per move        =     0.2000  Bohr
redata: Maximum number of CG moves       =      100
redata: Force tolerance                  =     0.0016  Ry/Bohr
redata: Stress tolerance                 =     1.0000  GPa
redata: ***********************************************************************
Total number of electrons:    32.000000
Total ionic charge:    32.000000
 Kpoints in:          108 . Kpoints trimmed:          108

siesta: k-grid: Number of k-points =   108
siesta: k-grid: Cutoff (effective) =    17.100 Ang
siesta: k-grid: Supercell and displacements
siesta: k-grid:    0   6   0      0.500
siesta: k-grid:    0   0   6      0.500
siesta: k-grid:    6   0   0      0.500
Naive supercell factors:     5    5    5

superc: Internal auxiliary supercell:     5 x     5 x     5  =     125
superc: Number of atoms, orbitals, and projectors:   1000  13000  16000

* Maximum dynamic memory allocated =     1 MB

siesta:                 ==============================
                            Begin CG move =      0
                        ==============================

outcoor: Atomic coordinates (Ang):                          
    0.00000000    0.00000000    0.00000000   1       1  Si
    1.36000000    1.36000000    1.36000000   1       2  Si
    2.72000000    2.72000000    0.00000000   1       3  Si
    4.08000000    4.08000000    1.36000000   1       4  Si
    2.72000000    0.00000000    2.72000000   1       5  Si
    4.08000000    1.36000000    4.08000000   1       6  Si
    0.00000000    2.72000000    2.72000000   1       7  Si
    1.36000000    4.08000000    4.08000000   1       8  Si

superc: Internal auxiliary supercell:     5 x     5 x     5  =     125
superc: Number of atoms, orbitals, and projectors:   1000  13000  16000

outcell: Unit cell vectors (Ang):
        5.700000    0.000000    0.000000
        0.000000    5.700000    0.000000
        0.000000    0.000000    5.700000

outcell: Cell vector modules (Ang)   :    5.700000    5.700000    5.700000
outcell: Cell angles (23,13,12) (deg):     90.0000     90.0000     90.0000
outcell: Cell volume (Ang**3)        :    185.1930
New_DM. Step:     1
Initializing Density Matrix...

InitMesh: MESH =    36 x    36 x    36 =       46656
InitMesh: Mesh cutoff (required, used) =   100.000   110.245 Ry

* Maximum dynamic memory allocated =    70 MB

stepf: Fermi-Dirac step function

siesta: Program's energy decomposition (eV):
siesta: Ebs     =      -335.548925
siesta: Eions   =      1510.441798
siesta: Ena     =       472.789657
siesta: Ekin    =       288.938730
siesta: Enl     =       130.864632
siesta: DEna    =         0.000001
siesta: DUscf   =         0.000000
siesta: DUext   =         0.000000
siesta: Exc     =      -248.655691
siesta: eta*DQ  =         0.000000
siesta: Emadel  =         0.000000
siesta: Emeta   =         0.000000
siesta: Emolmec =         0.000000
siesta: Ekinion =         0.000000
siesta: Eharris =      -860.588655
siesta: Etot    =      -866.504470
siesta: FreeEng =      -866.504470

siesta: iscf   Eharris(eV)      E_KS(eV)   FreeEng(eV)   dDmax  Ef(eV)
siesta:    1     -860.5887     -866.5045     -866.5045  1.8112 -5.3492
timer: Routine,Calls,Time,% = IterSCF        1      15.797  96.51
elaps: Routine,Calls,Wall,% = IterSCF        1      15.885  96.51
siesta:    2     -860.2918     -860.1944     -860.1944  0.0866 -5.1614
siesta:    3     -860.2671     -860.4601     -860.4611  0.0374 -5.1724
siesta:    4     -860.2628     -860.2655     -860.2660  0.0035 -5.1818
siesta:    5     -860.2626     -860.2569     -860.2573  0.0017 -5.1847
siesta:    6     -860.2626     -860.2612     -860.2616  0.0013 -5.1870
siesta:    7     -860.2626     -860.2631     -860.2635  0.0009 -5.1870

siesta: E_KS(eV) =             -860.2639

siesta: E_KS - E_eggbox =      -860.2639

siesta: Atomic forces (eV/Ang):
----------------------------------------
   Tot   -0.003779   -0.003781   -0.003788
----------------------------------------
   Max    1.669245
   Res    1.056615    sqrt( Sum f_i^2 / 3N )
----------------------------------------
   Max    1.669245    constrained

Stress-tensor-Voigt (kbar):       83.67       83.67       83.67      -11.50      -11.50      -11.50
(Free)E + p*V (eV/cell)     -869.9358
Target enthalpy (eV/cell)     -860.2643

siesta: Stress tensor (static) (eV/Ang**3):
         0.052224   -0.007179   -0.007179
        -0.007179    0.052224   -0.007179
        -0.007179   -0.007179    0.052224

siesta: Pressure (static):        -83.67286421  kBar

siesta: Stress tensor (total) (eV/Ang**3):
         0.052224   -0.007179   -0.007179
        -0.007179    0.052224   -0.007179
        -0.007179   -0.007179    0.052224

siesta: Pressure (total):        -83.67286421  kBar

mulliken: Mulliken Atomic and Orbital Populations:

Species: Si                  
Atom  Qatom  Qorb
               3s      3s      3py     3pz     3px     3py     3pz     3px     
               3Pdxy   3Pdyz   3Pdz2   3Pdxz   3Pdx2-y2
   1  4.054   0.871   0.468   0.425   0.425   0.425   0.358   0.358   0.358
              0.090   0.090   0.049   0.090   0.049
   2  3.980   0.573   0.609   0.234   0.234   0.234   0.522   0.522   0.522
              0.125   0.125   0.077   0.125   0.077
   3  3.981   0.668   0.563   0.315   0.255   0.315   0.452   0.492   0.452
              0.107   0.114   0.073   0.114   0.060
   4  4.007   0.769   0.516   0.335   0.401   0.335   0.429   0.379   0.429
              0.106   0.098   0.053   0.098   0.062
   5  3.981   0.668   0.563   0.255   0.315   0.315   0.492   0.452   0.452
              0.114   0.114   0.063   0.107   0.070
   6  4.007   0.769   0.516   0.401   0.335   0.335   0.379   0.429   0.429
              0.098   0.098   0.060   0.106   0.055
   7  3.981   0.668   0.563   0.315   0.315   0.255   0.452   0.452   0.492
              0.114   0.107   0.063   0.114   0.070
   8  4.007   0.769   0.516   0.335   0.335   0.401   0.429   0.429   0.379
              0.098   0.106   0.060   0.098   0.055

mulliken: Qtot =       32.000

cgvc: No target stress found, assuming hydrostatic MD.TargetPressure.

cgvc: Target stress (kBar)
cgvc:        -0.000       0.000       0.000
cgvc:         0.000      -0.000       0.000
cgvc:         0.000       0.000      -0.000

* Maximum dynamic memory allocated =    71 MB

siesta:                 ==============================
                            Begin CG move =      1
                        ==============================

outcoor: Atomic coordinates (Ang):                          
   -0.02437020   -0.02437019   -0.02437019   1       1  Si
    1.35038710    1.35038708    1.35038696   1       2  Si
    2.70701390    2.70701390   -0.02342602   1       3  Si
    4.08200104    4.08200102    1.36095957   1       4  Si
    2.70701392   -0.02342608    2.70701400   1       5  Si
    4.08200106    1.36095969    4.08200105   1       6  Si
   -0.02342608    2.70701395    2.70701405   1       7  Si
    1.36095965    4.08200103    4.08200102   1       8  Si
 Kpoints in:          108 . Kpoints trimmed:          108

siesta: k-grid: Number of k-points =   108
siesta: k-grid: Cutoff (effective) =    16.987 Ang
siesta: k-grid: Supercell and displacements
siesta: k-grid:    6   0   0      0.500
siesta: k-grid:    0   6   0      0.500
siesta: k-grid:    0   0   6      0.500
Naive supercell factors:     5    5    5

superc: Internal auxiliary supercell:     5 x     5 x     5  =     125
superc: Number of atoms, orbitals, and projectors:   1000  13000  16000

outcell: Unit cell vectors (Ang):
        5.662256    0.005189    0.005189
        0.005189    5.662256    0.005189
        0.005189    0.005189    5.662256

outcell: Cell vector modules (Ang)   :    5.662260    5.662260    5.662260
outcell: Cell angles (23,13,12) (deg):     89.8949     89.8949     89.8949
outcell: Cell volume (Ang**3)        :    181.5379
New_DM. Step:     2
Re-using DM from previous geometry...
Re-using DM without extrapolation (not allowed)
Density Matrix sparsity pattern changed.

InitMesh: MESH =    36 x    36 x    36 =       46656
InitMesh: Mesh cutoff (required, used) =   100.000   111.720 Ry

siesta: iscf   Eharris(eV)      E_KS(eV)   FreeEng(eV)   dDmax  Ef(eV)
siesta:    1     -860.8850     -861.0219     -861.0223  0.0312 -5.2051
siesta:    2     -860.9928     -860.7884     -860.7884  0.0504 -5.1891
siesta:    3     -860.8535     -860.8895     -860.8895  0.0128 -5.1986
siesta:    4     -860.8535     -860.8388     -860.8388  0.0016 -5.1963
siesta:    5     -860.8534     -860.8426     -860.8426  0.0010 -5.1964
siesta:    6     -860.8534     -860.8505     -860.8505  0.0001 -5.1965

siesta: E_KS(eV) =             -860.8518

siesta: Atomic forces (eV/Ang):
----------------------------------------
   Tot   -0.002375   -0.002372   -0.002373
----------------------------------------
   Max    1.167148
   Res    0.790348    sqrt( Sum f_i^2 / 3N )
----------------------------------------
   Max    1.167148    constrained

Stress-tensor-Voigt (kbar):       79.00       79.00       79.00       -5.86       -5.86       -5.86
(Free)E + p*V (eV/cell)     -869.8026
Target enthalpy (eV/cell)     -860.8518

siesta: Stress tensor (static) (eV/Ang**3):
         0.049306   -0.003656   -0.003656
        -0.003656    0.049306   -0.003656
        -0.003656   -0.003656    0.049306

siesta: Pressure (static):        -78.99714143  kBar

siesta: Stress tensor (total) (eV/Ang**3):
         0.049306   -0.003656   -0.003656
        -0.003656    0.049306   -0.003656
        -0.003656   -0.003656    0.049306

siesta: Pressure (total):        -78.99714143  kBar

mulliken: Mulliken Atomic and Orbital Populations:

Species: Si                  
Atom  Qatom  Qorb
               3s      3s      3py     3pz     3px     3py     3pz     3px     
               3Pdxy   3Pdyz   3Pdz2   3Pdxz   3Pdx2-y2
   1  4.036   0.832   0.484   0.390   0.390   0.390   0.386   0.386   0.386
              0.095   0.095   0.053   0.095   0.053
   2  3.985   0.596   0.595   0.246   0.246   0.246   0.513   0.513   0.513
              0.123   0.123   0.075   0.123   0.075
   3  3.988   0.672   0.559   0.306   0.254   0.306   0.461   0.496   0.461
              0.109   0.115   0.072   0.115   0.062
   4  4.005   0.749   0.523   0.321   0.368   0.321   0.443   0.407   0.443
              0.108   0.102   0.055   0.102   0.063
   5  3.988   0.672   0.559   0.254   0.306   0.306   0.496   0.461   0.461
              0.115   0.115   0.064   0.109   0.069
   6  4.005   0.749   0.523   0.368   0.321   0.321   0.407   0.443   0.443
              0.102   0.102   0.061   0.108   0.057
   7  3.988   0.672   0.559   0.306   0.306   0.254   0.461   0.461   0.496
              0.115   0.109   0.064   0.115   0.069
   8  4.005   0.749   0.523   0.321   0.321   0.368   0.443   0.443   0.407
              0.102   0.108   0.061   0.102   0.057

mulliken: Qtot =       32.000

* Maximum dynamic memory allocated =    72 MB

siesta:                 ==============================
                            Begin CG move =      2
                        ==============================

outcoor: Atomic coordinates (Ang):                          
   -0.06287343   -0.06287341   -0.06287340   1       1  Si
    1.33506835    1.33506828    1.33506797   1       2  Si
    2.68606641    2.68606641   -0.06010096   1       3  Si
    4.08463717    4.08463711    1.36260907   1       4  Si
    2.68606647   -0.06010111    2.68606667   1       5  Si
    4.08463724    1.36260935    4.08463720   1       6  Si
   -0.06010113    2.68606654    2.68606679   1       7  Si
    1.36260925    4.08463714    4.08463714   1       8  Si
 Kpoints in:          108 . Kpoints trimmed:          108

siesta: k-grid: Number of k-points =   108
siesta: k-grid: Cutoff (effective) =    16.806 Ang
siesta: k-grid: Supercell and displacements
siesta: k-grid:    6   0   0      0.500
siesta: k-grid:    0   6   0      0.500
siesta: k-grid:    0   0   6      0.500
Naive supercell factors:     5    5    5

superc: Internal auxiliary supercell:     5 x     5 x     5  =     125
superc: Number of atoms, orbitals, and projectors:   1000  13000  16000

outcell: Unit cell vectors (Ang):
        5.601865    0.013491    0.013491
        0.013491    5.601865    0.013491
        0.013491    0.013491    5.601865

outcell: Cell vector modules (Ang)   :    5.601897    5.601897    5.601897
outcell: Cell angles (23,13,12) (deg):     89.7237     89.7237     89.7237
outcell: Cell volume (Ang**3)        :    175.7884
New_DM. Step:     3
Re-using DM from previous geometry...
Re-using DM without extrapolation (not allowed)
Density Matrix sparsity pattern changed.

InitMesh: MESH =    36 x    36 x    36 =       46656
InitMesh: Mesh cutoff (required, used) =   100.000   114.145 Ry

siesta: iscf   Eharris(eV)      E_KS(eV)   FreeEng(eV)   dDmax  Ef(eV)
siesta:    1     -861.5610     -861.9521     -861.9521  0.0354 -5.2561
siesta:    2     -861.7996     -861.3388     -861.3388  0.0710 -5.2220
siesta:    3     -861.4876     -861.5867     -861.5867  0.0157 -5.2467
siesta:    4     -861.4875     -861.4520     -861.4520  0.0021 -5.2446
siesta:    5     -861.4874     -861.4603     -861.4603  0.0014 -5.2445
siesta:    6     -861.4874     -861.4800     -861.4800  0.0003 -5.2445

siesta: E_KS(eV) =             -861.4833

siesta: Atomic forces (eV/Ang):
----------------------------------------
   Tot    0.000343    0.000345    0.000333
----------------------------------------
   Max    0.537367
   Res    0.427098    sqrt( Sum f_i^2 / 3N )
----------------------------------------
   Max    0.537367    constrained

Stress-tensor-Voigt (kbar):       64.55       64.55       64.55        4.01        4.01        4.01
(Free)E + p*V (eV/cell)     -868.5661
Target enthalpy (eV/cell)     -861.4833

siesta: Stress tensor (static) (eV/Ang**3):
         0.040291    0.002506    0.002506
         0.002506    0.040291    0.002506
         0.002506    0.002506    0.040291

siesta: Pressure (static):        -64.55478358  kBar

siesta: Stress tensor (total) (eV/Ang**3):
         0.040291    0.002506    0.002506
         0.002506    0.040291    0.002506
         0.002506    0.002506    0.040291

siesta: Pressure (total):        -64.55478358  kBar

mulliken: Mulliken Atomic and Orbital Populations:

Species: Si                  
Atom  Qatom  Qorb
               3s      3s      3py     3pz     3px     3py     3pz     3px     
               3Pdxy   3Pdyz   3Pdz2   3Pdxz   3Pdx2-y2
   1  4.013   0.770   0.510   0.333   0.333   0.333   0.435   0.435   0.435
              0.104   0.104   0.059   0.104   0.059
   2  3.997   0.633   0.575   0.257   0.257   0.257   0.505   0.505   0.505
              0.120   0.120   0.072   0.120   0.072
   3  3.996   0.668   0.558   0.290   0.254   0.290   0.477   0.501   0.477
              0.112   0.117   0.072   0.117   0.065
   4  4.001   0.714   0.536   0.293   0.322   0.293   0.469   0.448   0.469
              0.112   0.109   0.061   0.109   0.066
   5  3.996   0.668   0.558   0.254   0.290   0.290   0.501   0.477   0.477
              0.117   0.117   0.066   0.112   0.070
   6  4.001   0.714   0.536   0.322   0.293   0.293   0.448   0.469   0.469
              0.109   0.109   0.065   0.112   0.062
   7  3.996   0.668   0.558   0.290   0.290   0.254   0.477   0.477   0.501
              0.117   0.112   0.066   0.117   0.070
   8  4.001   0.714   0.536   0.293   0.293   0.322   0.469   0.469   0.448
              0.109   0.112   0.065   0.109   0.062

mulliken: Qtot =       32.000

* Maximum dynamic memory allocated =    80 MB

siesta:                 ==============================
                            Begin CG move =      3
                        ==============================

outcoor: Atomic coordinates (Ang):                          
   -0.12322652   -0.12322648   -0.12322647   1       1  Si
    1.31071675    1.31071661    1.31071601   1       2  Si
    2.65211589    2.65211588   -0.11671576   1       3  Si
    4.08740724    4.08740712    1.36554053   1       4  Si
    2.65211601   -0.11671606    2.65211640   1       5  Si
    4.08740736    1.36554108    4.08740731   1       6  Si
   -0.11671610    2.65211615    2.65211664   1       7  Si
    1.36554089    4.08740718    4.08740717   1       8  Si
 Kpoints in:          108 . Kpoints trimmed:          108

siesta: k-grid: Number of k-points =   108
siesta: k-grid: Cutoff (effective) =    16.516 Ang
siesta: k-grid: Supercell and displacements
siesta: k-grid:    6   0   0      0.500
siesta: k-grid:    0   6   0      0.500
siesta: k-grid:    0   0   6      0.500
Naive supercell factors:     5    5    5

superc: Internal auxiliary supercell:     5 x     5 x     5  =     125
superc: Number of atoms, orbitals, and projectors:   1000  13000  16000

outcell: Unit cell vectors (Ang):
        5.505239    0.026774    0.026774
        0.026774    5.505239    0.026774
        0.026774    0.026774    5.505240

outcell: Cell vector modules (Ang)   :    5.505370    5.505370    5.505370
outcell: Cell angles (23,13,12) (deg):     89.4414     89.4414     89.4414
outcell: Cell volume (Ang**3)        :    166.8391
New_DM. Step:     4
Re-using DM from previous geometry...
Re-using DM without extrapolation (not allowed)
Density Matrix sparsity pattern changed.

InitMesh: MESH =    36 x    36 x    36 =       46656
InitMesh: Mesh cutoff (required, used) =   100.000   118.199 Ry

siesta: iscf   Eharris(eV)      E_KS(eV)   FreeEng(eV)   dDmax  Ef(eV)
siesta:    1     -861.7438     -862.8562     -862.8562  0.0423 -5.1386
siesta:    2     -862.1892     -861.3184     -861.3184  0.0878 -5.1741
siesta:    3     -861.6022     -861.8428     -861.8430  0.0181 -5.1148
siesta:    4     -861.6017     -861.5230     -861.5231  0.0024 -5.1088
siesta:    5     -861.6016     -861.5406     -861.5406  0.0017 -5.1097
siesta:    6     -861.6015     -861.5867     -861.5867  0.0004 -5.1111

siesta: E_KS(eV) =             -861.5936

siesta: Atomic forces (eV/Ang):
----------------------------------------
   Tot   -0.005799   -0.005795   -0.005802
----------------------------------------
   Max    1.125021
   Res    0.725913    sqrt( Sum f_i^2 / 3N )
----------------------------------------
   Max    1.125021    constrained

Stress-tensor-Voigt (kbar):       23.56       23.56       23.56       24.90       24.90       24.90
(Free)E + p*V (eV/cell)     -864.0466
Target enthalpy (eV/cell)     -861.5936

siesta: Stress tensor (static) (eV/Ang**3):
         0.014703    0.015542    0.015542
         0.015542    0.014703    0.015542
         0.015542    0.015542    0.014703

siesta: Pressure (static):        -23.55664385  kBar

siesta: Stress tensor (total) (eV/Ang**3):
         0.014703    0.015542    0.015542
         0.015542    0.014703    0.015542
         0.015542    0.015542    0.014703

siesta: Pressure (total):        -23.55664385  kBar

mulliken: Mulliken Atomic and Orbital Populations:

Species: Si                  
Atom  Qatom  Qorb
               3s      3s      3py     3pz     3px     3py     3pz     3px     
               3Pdxy   3Pdyz   3Pdz2   3Pdxz   3Pdx2-y2
   1  3.997   0.659   0.561   0.251   0.251   0.251   0.508   0.508   0.508
              0.119   0.119   0.072   0.119   0.072
   2  3.995   0.678   0.552   0.257   0.257   0.257   0.502   0.502   0.502
              0.117   0.117   0.069   0.117   0.069
   3  4.001   0.653   0.564   0.250   0.246   0.250   0.511   0.513   0.511
              0.119   0.120   0.072   0.120   0.072
   4  4.002   0.647   0.567   0.250   0.237   0.250   0.512   0.520   0.512
              0.120   0.121   0.074   0.121   0.072
   5  4.001   0.653   0.564   0.246   0.250   0.250   0.513   0.511   0.511
              0.120   0.120   0.072   0.119   0.072
   6  4.002   0.647   0.567   0.237   0.250   0.250   0.520   0.512   0.512
              0.121   0.121   0.073   0.120   0.074
   7  4.001   0.653   0.564   0.250   0.250   0.246   0.511   0.511   0.513
              0.120   0.119   0.072   0.120   0.072
   8  4.002   0.647   0.567   0.250   0.250   0.237   0.512   0.512   0.520
              0.121   0.120   0.073   0.121   0.074

mulliken: Qtot =       32.000

* Maximum dynamic memory allocated =    82 MB

siesta:                 ==============================
                            Begin CG move =      4
                        ==============================

outcoor: Atomic coordinates (Ang):                          
   -0.09892036   -0.09892033   -0.09892032   1       1  Si
    1.32057539    1.32057528    1.32057480   1       2  Si
    2.66595786    2.66595786   -0.09404728   1       3  Si
    4.08649794    4.08649785    1.36430754   1       4  Si
    2.66595796   -0.09404752    2.66595827   1       5  Si
    4.08649804    1.36430798    4.08649799   1       6  Si
   -0.09404756    2.66595807    2.66595846   1       7  Si
    1.36430783    4.08649790    4.08649789   1       8  Si
 Kpoints in:          108 . Kpoints trimmed:          108

siesta: k-grid: Number of k-points =   108
siesta: k-grid: Cutoff (effective) =    16.634 Ang
siesta: k-grid: Supercell and displacements
siesta: k-grid:    6   0   0      0.500
siesta: k-grid:    0   6   0      0.500
siesta: k-grid:    0   0   6      0.500
Naive supercell factors:     5    5    5

superc: Internal auxiliary supercell:     5 x     5 x     5  =     125
superc: Number of atoms, orbitals, and projectors:   1000  13000  16000

outcell: Unit cell vectors (Ang):
        5.544451    0.021384    0.021384
        0.021384    5.544451    0.021384
        0.021384    0.021384    5.544451

outcell: Cell vector modules (Ang)   :    5.544534    5.544534    5.544534
outcell: Cell angles (23,13,12) (deg):     89.5572     89.5572     89.5572
outcell: Cell volume (Ang**3)        :    170.4340
New_DM. Step:     5
Re-using DM from previous geometry...
Re-using DM without extrapolation (not allowed)
Density Matrix sparsity pattern changed.

InitMesh: MESH =    36 x    36 x    36 =       46656
InitMesh: Mesh cutoff (required, used) =   100.000   116.527 Ry

siesta: iscf   Eharris(eV)      E_KS(eV)   FreeEng(eV)   dDmax  Ef(eV)
siesta:    1     -861.7229     -861.0696     -861.0696  0.0192 -5.1346
siesta:    2     -861.8072     -861.6440     -861.6440  0.0419 -5.1766
siesta:    3     -861.6969     -861.5056     -861.5056  0.0085 -5.1488
siesta:    4     -861.6968     -861.6815     -861.6815  0.0009 -5.1502

siesta: E_KS(eV) =             -861.6866

siesta: Atomic forces (eV/Ang):
----------------------------------------
   Tot    0.000413    0.000410    0.000409
----------------------------------------
   Max    0.844879
   Res    0.479085    sqrt( Sum f_i^2 / 3N )
----------------------------------------
   Max    0.844879    constrained

Stress-tensor-Voigt (kbar):       42.51       42.51       42.51       15.35       15.36       15.36
(Free)E + p*V (eV/cell)     -866.2082
Target enthalpy (eV/cell)     -861.6866

siesta: Stress tensor (static) (eV/Ang**3):
         0.026530    0.009584    0.009584
         0.009584    0.026530    0.009584
         0.009584    0.009584    0.026530

siesta: Pressure (static):        -42.50645008  kBar

siesta: Stress tensor (total) (eV/Ang**3):
         0.026530    0.009584    0.009584
         0.009584    0.026530    0.009584
         0.009584    0.009584    0.026530

siesta: Pressure (total):        -42.50645008  kBar

mulliken: Mulliken Atomic and Orbital Populations:

Species: Si                  
Atom  Qatom  Qorb
               3s      3s      3py     3pz     3px     3py     3pz     3px     
               3Pdxy   3Pdyz   3Pdz2   3Pdxz   3Pdx2-y2
   1  3.999   0.706   0.539   0.283   0.283   0.283   0.479   0.479   0.479
              0.113   0.113   0.066   0.113   0.066
   2  3.999   0.663   0.559   0.260   0.260   0.260   0.501   0.501   0.501
              0.118   0.118   0.070   0.118   0.070
   3  4.000   0.662   0.560   0.267   0.251   0.267   0.496   0.507   0.496
              0.116   0.118   0.072   0.118   0.069
   4  4.000   0.677   0.553   0.266   0.271   0.266   0.495   0.492   0.495
              0.116   0.116   0.068   0.116   0.070
   5  4.000   0.662   0.560   0.251   0.267   0.267   0.507   0.496   0.496
              0.118   0.118   0.070   0.116   0.071
   6  4.000   0.677   0.553   0.271   0.266   0.266   0.492   0.495   0.495
              0.116   0.116   0.069   0.116   0.069
   7  4.000   0.662   0.560   0.267   0.267   0.251   0.496   0.496   0.507
              0.118   0.116   0.070   0.118   0.071
   8  4.000   0.677   0.553   0.266   0.266   0.271   0.495   0.495   0.492
              0.116   0.116   0.069   0.116   0.069

mulliken: Qtot =       32.000

cgvc: Finished line minimization    1.  Mean atomic displacement =    0.1690

* Maximum dynamic memory allocated =    84 MB

siesta:                 ==============================
                            Begin CG move =      5
                        ==============================

outcoor: Atomic coordinates (Ang):                          
   -0.10390382   -0.10390370   -0.10390392   1       1  Si
    1.24170431    1.24170433    1.24170499   1       2  Si
    2.63615779    2.63615775   -0.10125162   1       3  Si
    3.98077152    3.98077163    1.23740319   1       4  Si
    2.63615722   -0.10125048    2.63615693   1       5  Si
    3.98077087    1.23740347    3.98077142   1       6  Si
   -0.10125014    2.63615722    2.63615703   1       7  Si
    1.23740357    3.98077080    3.98077149   1       8  Si
 Kpoints in:          108 . Kpoints trimmed:          108

siesta: k-grid: Number of k-points =   108
siesta: k-grid: Cutoff (effective) =    16.271 Ang
siesta: k-grid: Supercell and displacements
siesta: k-grid:    6   0   0      0.500
siesta: k-grid:    0   6   0      0.500
siesta: k-grid:    0   0   6      0.500
Naive supercell factors:     5    5    5

superc: Internal auxiliary supercell:     5 x     5 x     5  =     125
superc: Number of atoms, orbitals, and projectors:   1000  13000  16000

outcell: Unit cell vectors (Ang):
        5.423799   -0.003684   -0.003685
       -0.003684    5.423799   -0.003685
       -0.003685   -0.003685    5.423799

outcell: Cell vector modules (Ang)   :    5.423801    5.423801    5.423802
outcell: Cell angles (23,13,12) (deg):     90.0778     90.0778     90.0778
outcell: Cell volume (Ang**3)        :    159.5549
New_DM. Step:     6
Re-using DM from previous geometry...
Re-using DM without extrapolation (not allowed)
Density Matrix sparsity pattern changed.

InitMesh: MESH =    36 x    36 x    36 =       46656
InitMesh: Mesh cutoff (required, used) =   100.000   121.759 Ry

siesta: iscf   Eharris(eV)      E_KS(eV)   FreeEng(eV)   dDmax  Ef(eV)
siesta:    1     -861.9896     -863.5678     -863.5678  0.0560 -5.3816
siesta:    2     -862.2083     -861.7667     -861.7667  0.0711 -5.3758
siesta:    3     -861.9135     -862.1156     -862.1156  0.0141 -5.3686
siesta:    4     -861.9128     -861.8670     -861.8670  0.0031 -5.3648
siesta:    5     -861.9127     -861.8756     -861.8756  0.0022 -5.3656
siesta:    6     -861.9127     -861.9050     -861.9050  0.0002 -5.3670

siesta: E_KS(eV) =             -861.9085

siesta: Atomic forces (eV/Ang):
----------------------------------------
   Tot    0.012471    0.012471    0.012399
----------------------------------------
   Max    0.488129
   Res    0.305472    sqrt( Sum f_i^2 / 3N )
----------------------------------------
   Max    0.488129    constrained

Stress-tensor-Voigt (kbar):      -10.38      -10.38      -10.38       -6.07       -6.07       -6.07
(Free)E + p*V (eV/cell)     -860.8746
Target enthalpy (eV/cell)     -861.9085

siesta: Stress tensor (static) (eV/Ang**3):
        -0.006481   -0.003789   -0.003789
        -0.003789   -0.006481   -0.003789
        -0.003789   -0.003789   -0.006478

siesta: Pressure (static):         10.38225786  kBar

siesta: Stress tensor (total) (eV/Ang**3):
        -0.006481   -0.003789   -0.003789
        -0.003789   -0.006481   -0.003789
        -0.003789   -0.003789   -0.006478

siesta: Pressure (total):         10.38225786  kBar

mulliken: Mulliken Atomic and Orbital Populations:

Species: Si                  
Atom  Qatom  Qorb
               3s      3s      3py     3pz     3px     3py     3pz     3px     
               3Pdxy   3Pdyz   3Pdz2   3Pdxz   3Pdx2-y2
   1  4.006   0.596   0.592   0.195   0.195   0.195   0.560   0.560   0.560
              0.131   0.131   0.081   0.131   0.081
   2  3.997   0.661   0.559   0.224   0.224   0.224   0.530   0.530   0.530
              0.122   0.122   0.074   0.122   0.074
   3  3.998   0.641   0.569   0.208   0.228   0.208   0.544   0.531   0.544
              0.126   0.124   0.074   0.124   0.077
   4  4.001   0.619   0.580   0.212   0.193   0.212   0.545   0.557   0.545
              0.126   0.128   0.080   0.128   0.077
   5  3.998   0.641   0.569   0.228   0.208   0.208   0.531   0.544   0.544
              0.124   0.124   0.077   0.126   0.075
   6  4.001   0.619   0.580   0.193   0.212   0.212   0.557   0.545   0.545
              0.128   0.128   0.077   0.126   0.079
   7  3.998   0.641   0.569   0.208   0.208   0.228   0.544   0.544   0.531
              0.124   0.126   0.077   0.124   0.075
   8  4.001   0.619   0.580   0.212   0.212   0.193   0.545   0.545   0.557
              0.128   0.126   0.077   0.128   0.079

mulliken: Qtot =       32.000

* Maximum dynamic memory allocated =    85 MB

siesta:                 ==============================
                            Begin CG move =      6
                        ==============================

outcoor: Atomic coordinates (Ang):                          
   -0.10235473   -0.10235464   -0.10235479   1       1  Si
    1.26682827    1.26682825    1.26682855   1       2  Si
    2.64599689    2.64599686   -0.09878294   1       3  Si
    4.01478544    4.01478549    1.27797187   1       4  Si
    2.64599654   -0.09878225    2.64599644   1       5  Si
    4.01478503    1.27797220    4.01478539   1       6  Si
   -0.09878202    2.64599657    2.64599657   1       7  Si
    1.27797222    4.01478494    4.01478540   1       8  Si
 Kpoints in:          108 . Kpoints trimmed:          108

siesta: k-grid: Number of k-points =   108
siesta: k-grid: Cutoff (effective) =    16.388 Ang
siesta: k-grid: Supercell and displacements
siesta: k-grid:    6   0   0      0.500
siesta: k-grid:    0   6   0      0.500
siesta: k-grid:    0   0   6      0.500
Naive supercell factors:     5    5    5

superc: Internal auxiliary supercell:     5 x     5 x     5  =     125
superc: Number of atoms, orbitals, and projectors:   1000  13000  16000

outcell: Unit cell vectors (Ang):
        5.462637    0.004385    0.004385
        0.004385    5.462637    0.004385
        0.004385    0.004385    5.462638

outcell: Cell vector modules (Ang)   :    5.462641    5.462641    5.462641
outcell: Cell angles (23,13,12) (deg):     89.9080     89.9080     89.9080
outcell: Cell volume (Ang**3)        :    163.0070
New_DM. Step:     7
Re-using DM from previous geometry...
Re-using DM without extrapolation (not allowed)
Density Matrix sparsity pattern changed.

InitMesh: MESH =    36 x    36 x    36 =       46656
InitMesh: Mesh cutoff (required, used) =   100.000   120.034 Ry

siesta: iscf   Eharris(eV)      E_KS(eV)   FreeEng(eV)   dDmax  Ef(eV)
siesta:    1     -861.9632     -861.3294     -861.3294  0.0211 -5.3176
siesta:    2     -861.9876     -861.9385     -861.9385  0.0209 -5.3141
siesta:    3     -861.9548     -861.8536     -861.8536  0.0050 -5.3186
siesta:    4     -861.9547     -861.9476     -861.9476  0.0009 -5.3195

siesta: E_KS(eV) =             -861.9511

siesta: Atomic forces (eV/Ang):
----------------------------------------
   Tot   -0.010586   -0.010585   -0.010572
----------------------------------------
   Max    0.213056
   Res    0.126570    sqrt( Sum f_i^2 / 3N )
----------------------------------------
   Max    0.213056    constrained

Stress-tensor-Voigt (kbar):        9.65        9.65        9.65        2.96        2.96        2.96
(Free)E + p*V (eV/cell)     -862.9333
Target enthalpy (eV/cell)     -861.9511

siesta: Stress tensor (static) (eV/Ang**3):
         0.006026    0.001848    0.001848
         0.001848    0.006026    0.001848
         0.001848    0.001848    0.006026

siesta: Pressure (static):         -9.65439384  kBar

siesta: Stress tensor (total) (eV/Ang**3):
         0.006026    0.001848    0.001848
         0.001848    0.006026    0.001848
         0.001848    0.001848    0.006026

siesta: Pressure (total):         -9.65439384  kBar

mulliken: Mulliken Atomic and Orbital Populations:

Species: Si                  
Atom  Qatom  Qorb
               3s      3s      3py     3pz     3px     3py     3pz     3px     
               3Pdxy   3Pdyz   3Pdz2   3Pdxz   3Pdx2-y2
   1  4.002   0.634   0.572   0.225   0.225   0.225   0.532   0.532   0.532
              0.124   0.124   0.076   0.124   0.076
   2  3.999   0.664   0.557   0.239   0.239   0.239   0.518   0.518   0.518
              0.121   0.121   0.072   0.121   0.072
   3  3.999   0.651   0.563   0.229   0.236   0.229   0.527   0.522   0.527
              0.123   0.122   0.073   0.122   0.074
   4  4.000   0.641   0.568   0.231   0.221   0.231   0.527   0.534   0.527
              0.123   0.124   0.076   0.124   0.074
   5  3.999   0.651   0.563   0.236   0.229   0.229   0.522   0.527   0.527
              0.122   0.122   0.074   0.123   0.073
   6  4.000   0.641   0.568   0.221   0.231   0.231   0.534   0.527   0.527
              0.124   0.124   0.074   0.123   0.075
   7  3.999   0.651   0.563   0.229   0.229   0.236   0.527   0.527   0.522
              0.122   0.123   0.074   0.122   0.073
   8  4.000   0.641   0.568   0.231   0.231   0.221   0.527   0.527   0.534
              0.124   0.123   0.074   0.124   0.075

mulliken: Qtot =       32.000

cgvc: Finished line minimization    2.  Mean atomic displacement =    0.1146

* Maximum dynamic memory allocated =    87 MB

siesta:                 ==============================
                            Begin CG move =      7
                        ==============================

outcoor: Atomic coordinates (Ang):                          
   -0.06691041   -0.06691115   -0.06691316   1       1  Si
    1.27584077    1.27584064    1.27583886   1       2  Si
    2.59703027    2.59703056   -0.06417108   1       3  Si
    3.93729834    3.93729777    1.25725595   1       4  Si
    2.59703156   -0.06417077    2.59703405   1       5  Si
    3.93729834    1.25725523    3.93730005   1       6  Si
   -0.06417150    2.59703203    2.59703449   1       7  Si
    1.25725571    3.93729892    3.93730040   1       8  Si
 Kpoints in:          108 . Kpoints trimmed:          108

siesta: k-grid: Number of k-points =   108
siesta: k-grid: Cutoff (effective) =    16.270 Ang
siesta: k-grid: Supercell and displacements
siesta: k-grid:    6   0   0      0.500
siesta: k-grid:    0   6   0      0.500
siesta: k-grid:    0   0   6      0.500
Naive supercell factors:     5    5    5

superc: Internal auxiliary supercell:     5 x     5 x     5  =     125
superc: Number of atoms, orbitals, and projectors:   1000  13000  16000

outcell: Unit cell vectors (Ang):
        5.423164   -0.009429   -0.009428
       -0.009429    5.423164   -0.009428
       -0.009428   -0.009428    5.423164

outcell: Cell vector modules (Ang)   :    5.423180    5.423180    5.423181
outcell: Cell angles (23,13,12) (deg):     90.1990     90.1990     90.1991
outcell: Cell volume (Ang**3)        :    159.4976
New_DM. Step:     8
Re-using DM from previous geometry...
Re-using DM without extrapolation (not allowed)
Density Matrix sparsity pattern changed.

InitMesh: MESH =    36 x    36 x    36 =       46656
InitMesh: Mesh cutoff (required, used) =   100.000   121.789 Ry

siesta: iscf   Eharris(eV)      E_KS(eV)   FreeEng(eV)   dDmax  Ef(eV)
siesta:    1     -861.9348     -862.4721     -862.4721  0.0312 -5.3743
siesta:    2     -862.2838     -861.6034     -861.6034  0.0906 -5.4053
siesta:    3     -861.8259     -861.9973     -861.9973  0.0220 -5.3858
siesta:    4     -861.8257     -861.7875     -861.7875  0.0013 -5.3823
siesta:    5     -861.8257     -861.7936     -861.7936  0.0011 -5.3824
siesta:    6     -861.8257     -861.8158     -861.8158  0.0003 -5.3827

siesta: E_KS(eV) =             -861.8222

siesta: Atomic forces (eV/Ang):
----------------------------------------
   Tot    0.006568    0.006568    0.006574
----------------------------------------
   Max    0.851516
   Res    0.487932    sqrt( Sum f_i^2 / 3N )
----------------------------------------
   Max    0.851516    constrained

Stress-tensor-Voigt (kbar):      -12.16      -12.16      -12.16      -10.11      -10.11      -10.11
(Free)E + p*V (eV/cell)     -860.6115
Target enthalpy (eV/cell)     -861.8222

siesta: Stress tensor (static) (eV/Ang**3):
        -0.007590   -0.006311   -0.006310
        -0.006311   -0.007590   -0.006310
        -0.006310   -0.006310   -0.007590

siesta: Pressure (static):         12.16094104  kBar

siesta: Stress tensor (total) (eV/Ang**3):
        -0.007590   -0.006311   -0.006310
        -0.006311   -0.007590   -0.006310
        -0.006310   -0.006310   -0.007590

siesta: Pressure (total):         12.16094104  kBar

mulliken: Mulliken Atomic and Orbital Populations:

Species: Si                  
Atom  Qatom  Qorb
               3s      3s      3py     3pz     3px     3py     3pz     3px     
               3Pdxy   3Pdyz   3Pdz2   3Pdxz   3Pdx2-y2
   1  3.997   0.674   0.553   0.232   0.232   0.232   0.523   0.523   0.523
              0.121   0.121   0.072   0.121   0.072
   2  4.012   0.571   0.605   0.186   0.186   0.186   0.570   0.570   0.570
              0.134   0.134   0.084   0.134   0.084
   3  4.001   0.613   0.583   0.212   0.182   0.212   0.546   0.565   0.546
              0.126   0.129   0.081   0.129   0.077
   4  3.996   0.647   0.566   0.207   0.241   0.207   0.543   0.521   0.543
              0.126   0.123   0.072   0.123   0.078
   5  4.001   0.613   0.583   0.182   0.212   0.212   0.565   0.546   0.546
              0.129   0.129   0.078   0.126   0.080
   6  3.996   0.647   0.566   0.241   0.207   0.207   0.521   0.543   0.543
              0.123   0.123   0.076   0.126   0.074
   7  4.001   0.613   0.583   0.212   0.212   0.182   0.546   0.546   0.565
              0.129   0.126   0.078   0.129   0.080
   8  3.996   0.647   0.566   0.207   0.207   0.241   0.543   0.543   0.521
              0.123   0.126   0.076   0.123   0.074

mulliken: Qtot =       32.000

* Maximum dynamic memory allocated =    88 MB

siesta:                 ==============================
                            Begin CG move =      8
                        ==============================

outcoor: Atomic coordinates (Ang):                          
   -0.09400180   -0.09400190   -0.09400249   1       1  Si
    1.26898743    1.26898738    1.26898719   1       2  Si
    2.63454256    2.63454261   -0.09066028   1       3  Si
    3.99663269    3.99663259    1.27311345   1       4  Si
    2.63454260   -0.09065967    2.63454310   1       5  Si
    3.99663238    1.27311353    3.99663306   1       6  Si
   -0.09065967    2.63454273    2.63454331   1       7  Si
    1.27311366    3.99663244    3.99663314   1       8  Si
 Kpoints in:          108 . Kpoints trimmed:          108

siesta: k-grid: Number of k-points =   108
siesta: k-grid: Cutoff (effective) =    16.360 Ang
siesta: k-grid: Supercell and displacements
siesta: k-grid:    6   0   0      0.500
siesta: k-grid:    0   6   0      0.500
siesta: k-grid:    0   0   6      0.500
Naive supercell factors:     5    5    5

superc: Internal auxiliary supercell:     5 x     5 x     5  =     125
superc: Number of atoms, orbitals, and projectors:   1000  13000  16000

outcell: Unit cell vectors (Ang):
        5.453419    0.001159    0.001159
        0.001159    5.453420    0.001159
        0.001159    0.001159    5.453420

outcell: Cell vector modules (Ang)   :    5.453420    5.453420    5.453420
outcell: Cell angles (23,13,12) (deg):     89.9756     89.9756     89.9756
outcell: Cell volume (Ang**3)        :    162.1835
New_DM. Step:     9
Re-using DM from previous geometry...
Re-using DM without extrapolation (not allowed)
Density Matrix sparsity pattern changed.

InitMesh: MESH =    36 x    36 x    36 =       46656
InitMesh: Mesh cutoff (required, used) =   100.000   120.439 Ry

siesta: iscf   Eharris(eV)      E_KS(eV)   FreeEng(eV)   dDmax  Ef(eV)
siesta:    1     -862.0364     -861.4092     -861.4092  0.0263 -5.3221
siesta:    2     -862.2493     -861.8340     -861.8340  0.0588 -5.3395
siesta:    3     -861.9701     -861.7226     -861.7226  0.0188 -5.3230
siesta:    4     -861.9700     -861.9428     -861.9428  0.0011 -5.3245
siesta:    5     -861.9700     -861.9518     -861.9518  0.0007 -5.3243

siesta: E_KS(eV) =             -861.9633

siesta: Atomic forces (eV/Ang):
----------------------------------------
   Tot   -0.002952   -0.002953   -0.002947
----------------------------------------
   Max    0.022590
   Res    0.015211    sqrt( Sum f_i^2 / 3N )
----------------------------------------
   Max    0.022590    constrained

Stress-tensor-Voigt (kbar):        5.79        5.79        5.79       -0.06       -0.06       -0.06
(Free)E + p*V (eV/cell)     -862.5489
Target enthalpy (eV/cell)     -861.9633

siesta: Stress tensor (static) (eV/Ang**3):
         0.003611   -0.000038   -0.000038
        -0.000038    0.003611   -0.000038
        -0.000038   -0.000038    0.003611

siesta: Pressure (static):         -5.78532385  kBar

siesta: Stress tensor (total) (eV/Ang**3):
         0.003611   -0.000038   -0.000038
        -0.000038    0.003611   -0.000038
        -0.000038   -0.000038    0.003611

siesta: Pressure (total):         -5.78532385  kBar

mulliken: Mulliken Atomic and Orbital Populations:

Species: Si                  
Atom  Qatom  Qorb
               3s      3s      3py     3pz     3px     3py     3pz     3px     
               3Pdxy   3Pdyz   3Pdz2   3Pdxz   3Pdx2-y2
   1  4.000   0.644   0.567   0.226   0.226   0.226   0.530   0.530   0.530
              0.124   0.124   0.075   0.124   0.075
   2  4.000   0.643   0.568   0.225   0.225   0.225   0.531   0.531   0.531
              0.124   0.124   0.075   0.124   0.075
   3  4.000   0.642   0.568   0.225   0.225   0.225   0.531   0.531   0.531
              0.124   0.124   0.075   0.124   0.075
   4  4.000   0.642   0.568   0.225   0.225   0.225   0.531   0.531   0.531
              0.124   0.124   0.075   0.124   0.075
   5  4.000   0.642   0.568   0.225   0.225   0.225   0.531   0.531   0.531
              0.124   0.124   0.075   0.124   0.075
   6  4.000   0.642   0.568   0.225   0.225   0.225   0.531   0.531   0.531
              0.124   0.124   0.075   0.124   0.075
   7  4.000   0.642   0.568   0.225   0.225   0.225   0.531   0.531   0.531
              0.124   0.124   0.075   0.124   0.075
   8  4.000   0.642   0.568   0.225   0.225   0.225   0.531   0.531   0.531
              0.124   0.124   0.075   0.124   0.075

mulliken: Qtot =       32.000

* Maximum dynamic memory allocated =    88 MB

outcoor: Relaxed atomic coordinates (Ang):                  
   -0.09400180   -0.09400190   -0.09400249   1       1  Si
    1.26898743    1.26898738    1.26898719   1       2  Si
    2.63454256    2.63454261   -0.09066028   1       3  Si
    3.99663269    3.99663259    1.27311345   1       4  Si
    2.63454260   -0.09065967    2.63454310   1       5  Si
    3.99663238    1.27311353    3.99663306   1       6  Si
   -0.09065967    2.63454273    2.63454331   1       7  Si
    1.27311366    3.99663244    3.99663314   1       8  Si

outcell: Unit cell vectors (Ang):
        5.453419    0.001159    0.001159
        0.001159    5.453420    0.001159
        0.001159    0.001159    5.453420

outcell: Cell vector modules (Ang)   :    5.453420    5.453420    5.453420
outcell: Cell angles (23,13,12) (deg):     89.9756     89.9756     89.9756
outcell: Cell volume (Ang**3)        :    162.1835

coxmol: Writing XMOL coordinates into file si.xyz                                                          
Writing WFSX for selected k-points in si.selected.WFSX

writewave: Wave Functions Coefficients

     Number of k-points =        1
        Number of Spins =        1
   Number of basis orbs =      104


                                                                  ******
            k-point =        1    0.000000  0.000000  0.000000
     Spin component =        1
 Num. wavefunctions =       50
Use readwfsx utility to print wavefunction coefficients from WFSX file
Computing bands...

siesta: Band k vectors (Bohr**-1):
  ik           k
   1    0.291659    0.291659    0.291659
   2    0.279993    0.279993    0.279993
   3    0.268327    0.268327    0.268327
   4    0.256660    0.256660    0.256660
   5    0.244994    0.244994    0.244994
   6    0.233328    0.233328    0.233328
   7    0.221661    0.221661    0.221661
   8    0.209995    0.209995    0.209995
   9    0.198328    0.198328    0.198328
  10    0.186662    0.186662    0.186662
  11    0.174996    0.174996    0.174996
  12    0.163329    0.163329    0.163329
  13    0.151663    0.151663    0.151663
  14    0.139997    0.139997    0.139997
  15    0.128330    0.128330    0.128330
  16    0.116664    0.116664    0.116664
  17    0.104997    0.104997    0.104997
  18    0.093331    0.093331    0.093331
  19    0.081665    0.081665    0.081665
  20    0.069998    0.069998    0.069998
  21    0.058332    0.058332    0.058332
  22    0.046666    0.046666    0.046666
  23    0.034999    0.034999    0.034999
  24    0.023333    0.023333    0.023333
  25    0.011666    0.011666    0.011666
  26    0.000000    0.000000    0.000000
  27    0.019444    0.000000    0.000000
  28    0.038888    0.000000    0.000000
  29    0.058332    0.000000    0.000000
  30    0.077776    0.000000    0.000000
  31    0.097220    0.000000    0.000000
  32    0.116664    0.000000    0.000000
  33    0.136108    0.000000    0.000000
  34    0.155552    0.000000    0.000000
  35    0.174996    0.000000    0.000000
  36    0.194440    0.000000    0.000000
  37    0.213884    0.000000    0.000000
  38    0.233328    0.000000    0.000000
  39    0.252771    0.000000    0.000000
  40    0.272215    0.000000    0.000000
  41    0.291659    0.000000    0.000000
  42    0.311103    0.000000    0.000000
  43    0.330547    0.000000    0.000000
  44    0.349991    0.000000    0.000000
  45    0.369435    0.000000    0.000000
  46    0.388879    0.000000    0.000000
  47    0.408323    0.000000    0.000000
  48    0.427767    0.000000    0.000000
  49    0.447211    0.000000    0.000000
  50    0.466655    0.000000    0.000000
  51    0.486099    0.000000    0.000000
  52    0.505543    0.000000    0.000000
  53    0.524987    0.000000    0.000000
  54    0.544431    0.000000    0.000000
  55    0.563875    0.000000    0.000000
  56    0.583319    0.000000    0.000000
  57    0.583319    0.014583    0.014583
  58    0.583319    0.029166    0.029166
  59    0.583319    0.043749    0.043749
  60    0.583319    0.058332    0.058332
  61    0.583319    0.072915    0.072915
  62    0.583319    0.087498    0.087498
  63    0.583319    0.102081    0.102081
  64    0.583319    0.116664    0.116664
  65    0.583319    0.131247    0.131247
  66    0.583319    0.145830    0.145830
  67    0.566653    0.141663    0.141663
  68    0.549986    0.137497    0.137497
  69    0.533320    0.133330    0.133330
  70    0.516654    0.129163    0.129163
  71    0.499988    0.124997    0.124997
  72    0.483321    0.120830    0.120830
  73    0.466655    0.116664    0.116664
  74    0.449989    0.112497    0.112497
  75    0.433323    0.108331    0.108331
  76    0.416656    0.104164    0.104164
  77    0.399990    0.099998    0.099998
  78    0.383324    0.095831    0.095831
  79    0.366658    0.091664    0.091664
  80    0.349991    0.087498    0.087498
  81    0.333325    0.083331    0.083331
  82    0.316659    0.079165    0.079165
  83    0.299993    0.074998    0.074998
  84    0.283326    0.070832    0.070832
  85    0.266660    0.066665    0.066665
  86    0.249994    0.062498    0.062498
  87    0.233328    0.058332    0.058332
  88    0.216661    0.054165    0.054165
  89    0.199995    0.049999    0.049999
  90    0.183329    0.045832    0.045832
  91    0.166663    0.041666    0.041666
  92    0.149996    0.037499    0.037499
  93    0.133330    0.033333    0.033333
  94    0.116664    0.029166    0.029166
  95    0.099998    0.024999    0.024999
  96    0.083331    0.020833    0.020833
  97    0.066665    0.016666    0.016666
  98    0.049999    0.012500    0.012500
  99    0.033333    0.008333    0.008333
 100    0.016666    0.004167    0.004167
 101    0.000000    0.000000    0.000000

siesta: Band energies (eV):
  ik is    eps
   1  1 -15.29 -15.27 -15.27 -15.26 -12.63 -12.63 -12.63 -12.61  -6.93  -6.93
         -6.93  -6.89  -6.88  -6.88  -6.87  -6.87  -4.22  -4.18  -4.18  -4.18
         -2.22  -2.22  -2.22  -2.20  -2.20  -2.19  -2.19  -2.19   3.14   3.15
          3.15   3.17   5.05   5.05   5.05   5.17   5.17   5.44   5.44   5.44
          5.61   5.81   5.81   5.81   5.99   5.99   6.00   6.24   6.24   6.27
          6.28   6.28   8.22   8.22   8.22   8.27  16.38  16.44  16.44  16.44
         17.40  17.40  17.43  17.43  17.44  17.49  17.49  17.49  19.33  19.33
         19.33  19.37  19.37  19.37  19.43  19.43  20.39  20.39  20.39  20.80
         29.30  29.30  29.30  29.38  29.38  29.39  29.40  29.40  69.15  69.30
         69.30  69.35  70.60  70.60  70.67  71.19  71.35  71.35  73.09  73.09
        113.11 113.11 113.20 114.93
   2  1 -15.35 -15.26 -15.26 -15.25 -12.62 -12.61 -12.61 -12.52  -7.05  -7.05
         -7.05  -6.92  -6.92  -6.92  -6.86  -6.86  -4.21  -4.06  -4.06  -4.06
         -2.24  -2.24  -2.24  -2.19  -2.19  -2.13  -2.13  -2.13   3.09   3.10
          3.10   3.16   4.62   4.62   4.62   4.80   4.80   5.41   5.41   5.41
          5.46   5.87   5.87   5.87   6.04   6.04   6.05   6.65   6.65   6.78
          6.79   6.79   8.27   8.27   8.27   8.38  16.26  16.39  16.39  16.39
         17.18  17.18  17.28  17.28  17.29  17.44  17.44  17.44  19.26  19.26
         19.26  19.33  19.34  19.34  19.58  19.58  19.69  19.69  19.69  21.03
         29.10  29.10  29.10  29.42  29.42  29.43  29.45  29.45  64.04  64.04
         64.08  66.68  68.03  68.16  68.16  70.86  70.86  70.91  72.83  72.83
        106.10 106.10 106.18 111.38
   3  1 -15.45 -15.25 -15.25 -15.24 -12.59 -12.58 -12.58 -12.38  -7.22  -7.22
         -7.22  -6.97  -6.97  -6.97  -6.84  -6.84  -4.19  -3.90  -3.90  -3.90
         -2.28  -2.28  -2.28  -2.18  -2.18  -2.04  -2.03  -2.03   2.98   2.99
          2.99   3.14   4.27   4.27   4.27   4.43   4.43   5.26   5.37   5.37
          5.37   5.95   5.96   5.96   6.12   6.12   6.12   7.09   7.09   7.29
          7.30   7.30   8.36   8.36   8.37   8.52  16.12  16.26  16.26  16.26
         16.88  16.88  17.05  17.05  17.06  17.40  17.40  17.40  18.83  18.83
         18.83  19.14  19.14  19.14  19.40  19.41  19.41  19.76  19.76  21.35
         28.77  28.77  28.77  29.53  29.53  29.55  29.55  29.56  58.06  58.06
         58.09  62.90  64.26  64.36  64.36  71.39  71.39  71.44  72.41  72.41
         97.37  97.37  97.42 107.17
   4  1 -15.56 -15.24 -15.24 -15.23 -12.55 -12.55 -12.55 -12.19  -7.43  -7.43
         -7.42  -7.03  -7.03  -7.03  -6.83  -6.83  -4.17  -3.73  -3.73  -3.73
         -2.30  -2.30  -2.30  -2.16  -2.16  -1.91  -1.91  -1.91   2.75   2.76
          2.76   3.11   4.06   4.06   4.06   4.07   4.07   5.03   5.33   5.33
          5.33   6.06   6.06   6.06   6.21   6.21   6.21   7.54   7.54   7.75
          7.76   7.76   8.55   8.55   8.55   8.66  16.00  16.00  16.00  16.00
         16.52  16.52  16.76  16.76  16.77  17.36  17.36  17.36  18.23  18.23
         18.23  18.98  18.98  18.98  19.40  19.40  19.40  19.95  19.95  21.74
         28.33  28.33  28.33  29.64  29.64  29.78  29.78  29.79  52.31  52.31
         52.33  58.32  60.79  60.85  60.85  71.85  71.85  71.90  71.90  71.93
         89.90  89.90  89.92 103.22
   5  1 -15.69 -15.22 -15.22 -15.21 -12.50 -12.50 -12.50 -11.98  -7.65  -7.65
         -7.65  -7.11  -7.11  -7.11  -6.80  -6.80  -4.14  -3.59  -3.58  -3.58
         -2.27  -2.27  -2.27  -2.14  -2.14  -1.75  -1.75  -1.75   2.40   2.41
          2.41   3.06   3.72   3.72   3.98   3.98   3.98   4.81   5.29   5.29
          5.29   6.18   6.18   6.18   6.31   6.31   6.31   8.00   8.00   8.07
          8.08   8.08   8.75   8.91   8.91   8.91  15.64  15.64  15.64  15.92
         16.14  16.14  16.41  16.41  16.42  17.30  17.30  17.30  17.89  17.89
         17.89  18.78  18.78  18.78  19.42  19.42  19.42  20.14  20.14  22.16
         27.79  27.79  27.79  29.76  29.76  30.11  30.11  30.12  47.12  47.12
         47.14  53.53  58.05  58.10  58.10  71.21  71.21  72.07  72.07  72.10
         84.91  84.91  84.91  99.81
   6  1 -15.83 -15.19 -15.19 -15.19 -12.45 -12.45 -12.45 -11.74  -7.88  -7.88
         -7.88  -7.20  -7.19  -7.19  -6.77  -6.77  -4.10  -3.50  -3.50  -3.50
         -2.17  -2.17  -2.16  -2.12  -2.12  -1.56  -1.56  -1.56   1.99   2.00
          2.00   2.98   3.39   3.39   3.99   3.99   3.99   4.62   5.26   5.26
          5.26   6.31   6.31   6.31   6.42   6.42   6.42   8.26   8.26   8.26
          8.45   8.45   8.78   9.41   9.41   9.41  15.23  15.23  15.23  15.74
         15.74  15.92  16.04  16.04  16.04  17.16  17.16  17.16  17.82  17.82
         17.82  18.54  18.54  18.54  19.47  19.48  19.48  20.31  20.31  22.60
         27.19  27.19  27.19  29.90  29.90  30.52  30.52  30.53  42.69  42.69
         42.71  49.06  56.16  56.19  56.19  70.49  70.49  71.65  71.65  71.68
         82.30  82.31  82.31  96.81
   7  1 -15.97 -15.17 -15.17 -15.16 -12.39 -12.38 -12.38 -11.48  -8.11  -8.11
         -8.11  -7.29  -7.29  -7.29  -6.73  -6.73  -4.06  -3.50  -3.49  -3.49
         -2.10  -2.10  -1.97  -1.97  -1.97  -1.34  -1.34  -1.34   1.55   1.55
          1.55   2.85   3.08   3.08   4.05   4.05   4.05   4.49   5.23   5.23
          5.23   6.45   6.45   6.45   6.53   6.53   6.53   8.40   8.41   8.41
          8.74   8.90   8.90   9.98   9.98   9.98  14.83  14.83  14.83  15.35
         15.35  15.64  15.64  15.65  15.99  16.98  16.98  16.98  17.89  17.89
         17.89  18.26  18.26  18.26  19.56  19.57  19.57  20.46  20.46  23.05
         26.54  26.54  26.55  30.05  30.05  30.99  30.99  31.00  39.06  39.06
         39.08  45.17  55.01  55.03  55.03  69.79  69.79  70.67  70.67  70.70
         81.34  81.37  81.37  94.01
   8  1 -16.11 -15.13 -15.13 -15.13 -12.32 -12.32 -12.32 -11.20  -8.34  -8.34
         -8.34  -7.39  -7.39  -7.39  -6.69  -6.69  -4.02  -3.55  -3.55  -3.55
         -2.08  -2.08  -1.71  -1.71  -1.70  -1.11  -1.11  -1.11   1.09   1.09
          1.09   2.66   2.80   2.80   4.13   4.13   4.13   4.42   5.21   5.22
          5.22   6.58   6.58   6.58   6.64   6.64   6.64   8.54   8.55   8.55
          8.62   9.33   9.33  10.56  10.56  10.56  14.43  14.43  14.44  14.98
         14.98  15.24  15.24  15.25  16.12  16.82  16.82  16.82  17.95  17.96
         17.96  18.01  18.01  18.01  19.69  19.70  19.70  20.59  20.59  23.52
         25.88  25.88  25.89  30.21  30.21  31.47  31.47  31.48  36.17  36.17
         36.18  41.98  54.48  54.49  54.49  69.18  69.18  69.40  69.40  69.42
         81.16  81.19  81.19  91.20
   9  1 -16.25 -15.09 -15.09 -15.09 -12.26 -12.25 -12.25 -10.90  -8.56  -8.56
         -8.56  -7.49  -7.49  -7.49  -6.65  -6.65  -3.96  -3.65  -3.64  -3.64
         -2.06  -2.06  -1.39  -1.39  -1.39  -0.85  -0.85  -0.85   0.63   0.63
          0.63   2.43   2.54   2.54   4.22   4.22   4.22   4.41   5.20   5.20
          5.20   6.70   6.71   6.71   6.75   6.75   6.75   8.42   8.70   8.70
          8.70   9.70   9.70  11.14  11.14  11.14  14.05  14.05  14.05  14.66
         14.66  14.84  14.84  14.85  16.28  16.69  16.70  16.70  17.62  17.62
         17.62  18.14  18.14  18.14  19.86  19.86  19.86  20.70  20.70  24.02
         25.22  25.22  25.23  30.38  30.38  31.79  31.79  31.79  34.02  34.02
         34.03  39.48  54.42  54.43  54.43  67.93  67.93  67.95  68.75  68.75
         81.15  81.18  81.18  88.23
  10  1 -16.39 -15.05 -15.05 -15.04 -12.19 -12.19 -12.19 -10.59  -8.77  -8.77
         -8.76  -7.59  -7.59  -7.59  -6.59  -6.59  -3.91  -3.76  -3.75  -3.75
         -2.06  -2.06  -1.05  -1.05  -1.04  -0.57  -0.57  -0.57   0.17   0.18
          0.18   2.17   2.32   2.32   4.32   4.33   4.33   4.44   5.20   5.20
          5.20   6.82   6.82   6.82   6.85   6.85   6.85   8.16   8.87   8.87
          8.87   9.99   9.99  11.70  11.70  11.70  13.67  13.67  13.67  14.44
         14.44  14.45  14.45  14.45  16.46  16.61  16.62  16.62  17.26  17.27
         17.27  18.26  18.26  18.26  20.07  20.07  20.07  20.79  20.79  24.52
         24.57  24.57  24.57  30.58  30.58  31.15  31.15  31.16  33.23  33.23
         33.25  37.65  54.72  54.73  54.73  66.20  66.20  66.22  68.57  68.57
         81.02  81.05  81.05  85.03
  11  1 -16.52 -15.00 -15.00 -14.99 -12.13 -12.13 -12.13 -10.27  -8.95  -8.95
         -8.95  -7.69  -7.69  -7.69  -6.54  -6.54  -3.88  -3.87  -3.87  -3.84
         -2.06  -2.06  -0.69  -0.69  -0.69  -0.28  -0.28  -0.28  -0.27  -0.27
         -0.27   1.89   2.12   2.12   4.43   4.43   4.43   4.50   5.20   5.20
          5.20   6.91   6.91   6.91   6.95   6.95   6.95   7.86   9.09   9.09
          9.09  10.16  10.16  12.21  12.22  12.22  13.30  13.30  13.30  14.06
         14.06  14.06  14.36  14.36  16.58  16.58  16.58  16.62  16.90  16.90
         16.90  18.37  18.37  18.37  20.31  20.31  20.31  20.86  20.86  23.93
         23.93  23.94  24.97  29.79  29.79  29.80  30.80  30.80  33.44  33.44
         33.45  36.46  55.29  55.30  55.30  64.04  64.04  64.06  68.73  68.73
         80.65  80.67  80.67  81.60
  12  1 -16.65 -14.94 -14.94 -14.94 -12.09 -12.09 -12.09  -9.94  -9.11  -9.11
         -9.10  -7.79  -7.78  -7.78  -6.48  -6.48  -4.00  -4.00  -4.00  -3.77
         -2.08  -2.08  -0.76  -0.75  -0.75  -0.27  -0.27  -0.27   0.03   0.03
          0.03   1.60   1.96   1.96   4.54   4.54   4.54   4.59   5.21   5.21
          5.21   6.99   6.99   6.99   7.04   7.04   7.04   7.52   9.34   9.34
          9.34  10.17  10.17  12.54  12.54  12.54  13.09  13.09  13.09  13.66
         13.66  13.67  14.45  14.45  16.54  16.54  16.54  16.58  16.59  16.59
         16.76  18.46  18.46  18.46  20.57  20.57  20.57  20.91  20.91  23.32
         23.32  23.32  25.27  28.52  28.52  28.53  31.05  31.05  33.69  33.69
         33.69  35.93  56.06  56.07  56.07  61.38  61.38  61.38  69.32  69.32
         78.01  80.02  80.03  80.03
  13  1 -16.77 -14.88 -14.88 -14.87 -12.06 -12.06 -12.06  -9.60  -9.23  -9.23
         -9.23  -7.88  -7.88  -7.88  -6.41  -6.41  -4.12  -4.12  -4.12  -3.70
         -2.11  -2.11  -1.19  -1.18  -1.18   0.11   0.11   0.12   0.36   0.36
          0.36   1.29   1.84   1.84   4.64   4.64   4.64   4.68   5.23   5.23
          5.23   7.04   7.04   7.04   7.11   7.11   7.12   7.17   9.64   9.64
          9.64  10.03  10.03  12.30  12.30  12.30  13.26  13.26  13.26  13.40
         13.40  13.40  14.71  14.71  16.19  16.19  16.19  16.61  16.62  16.62
         16.89  18.53  18.53  18.53  20.85  20.85  20.85  20.94  20.94  22.72
         22.72  22.73  25.29  27.43  27.43  27.44  31.35  31.35  33.80  33.80
         33.81  36.02  56.95  56.97  56.97  58.25  58.25  58.25  70.43  70.43
         74.41  79.17  79.18  79.18
  14  1 -16.88 -14.81 -14.81 -14.80 -12.05 -12.05 -12.05  -9.32  -9.32  -9.31
         -9.25  -7.97  -7.97  -7.97  -6.34  -6.34  -4.24  -4.23  -4.23  -3.62
         -2.15  -2.15  -1.61  -1.61  -1.61   0.51   0.51   0.51   0.69   0.69
          0.69   0.98   1.76   1.76   4.73   4.74   4.74   4.76   5.26   5.26
          5.26   6.82   7.08   7.08   7.08   7.18   7.18   7.18   9.77   9.77
          9.99   9.99   9.99  11.90  11.90  11.91  12.85  12.85  12.85  13.85
         13.85  13.85  15.09  15.09  15.87  15.87  15.87  16.68  16.68  16.68
         17.02  18.57  18.57  18.57  20.96  20.96  21.12  21.13  21.13  22.15
         22.15  22.16  25.01  26.51  26.51  26.51  31.70  31.70  33.75  33.75
         33.75  36.63  54.86  54.87  54.87  57.94  57.96  57.96  71.05  72.14
         72.14  78.17  78.17  78.17
  15  1 -16.99 -14.73 -14.73 -14.73 -12.08 -12.08 -12.08  -9.36  -9.36  -9.36
         -8.90  -8.05  -8.05  -8.05  -6.27  -6.27  -4.35  -4.34  -4.34  -3.54
         -2.22  -2.22  -2.03  -2.03  -2.03   0.66   0.91   0.91   0.92   1.04
          1.04   1.04   1.72   1.72   4.81   4.83   4.83   4.83   5.29   5.29
          5.29   6.51   7.10   7.10   7.10   7.23   7.23   7.23   9.45   9.45
         10.37  10.37  10.37  11.50  11.50  11.50  12.41  12.41  12.41  14.29
         14.29  14.29  15.55  15.55  15.59  15.59  15.59  16.75  16.76  16.76
         17.16  18.59  18.59  18.59  20.97  20.97  21.38  21.39  21.39  21.61
         21.61  21.62  24.46  25.72  25.72  25.72  32.09  32.09  33.53  33.53
         33.53  37.50  51.48  51.49  51.49  58.98  59.00  59.00  68.21  74.57
         74.57  77.06  77.06  77.07
  16  1 -17.08 -14.65 -14.65 -14.64 -12.13 -12.13 -12.13  -9.36  -9.36  -9.36
         -8.54  -8.13  -8.13  -8.13  -6.20  -6.20  -4.45  -4.45  -4.45  -3.45
         -2.43  -2.43  -2.43  -2.30  -2.30   0.33   1.32   1.32   1.32   1.39
          1.39   1.39   1.71   1.71   4.81   4.91   4.91   4.91   5.33   5.33
          5.33   6.27   7.11   7.11   7.11   7.27   7.27   7.27   9.09   9.09
         10.64  10.64  10.64  11.22  11.22  11.22  11.95  11.95  11.95  14.70
         14.71  14.71  15.37  15.37  15.37  16.06  16.06  16.84  16.85  16.85
         17.31  18.60  18.60  18.60  20.96  20.96  21.10  21.10  21.11  21.60
         21.61  21.61  23.73  25.05  25.05  25.05  32.51  32.51  33.20  33.20
         33.20  38.30  48.35  48.36  48.36  60.04  60.06  60.06  66.25  75.90
         75.90  75.91  77.85  77.85
  17  1 -17.17 -14.56 -14.56 -14.55 -12.21 -12.21 -12.21  -9.33  -9.33  -9.33
         -8.20  -8.20  -8.20  -8.18  -6.12  -6.12  -4.55  -4.54  -4.54  -3.36
         -2.81  -2.81  -2.81  -2.39  -2.39   0.00   1.73   1.73   1.73   1.74
          1.74   1.75   1.75   1.75   4.73   5.00   5.00   5.00   5.37   5.37
          5.37   6.12   7.11   7.11   7.11   7.29   7.29   7.29   8.72   8.72
         10.44  10.44  10.44  11.45  11.45  11.45  11.47  11.48  11.48  15.08
         15.08  15.08  15.20  15.20  15.20  16.57  16.57  16.94  16.94  16.94
         17.46  18.59  18.59  18.59  20.61  20.61  20.62  20.94  20.94  21.75
         21.76  21.76  22.89  24.47  24.47  24.48  32.83  32.84  32.84  32.96
         32.96  38.68  45.64  45.65  45.65  61.10  61.12  61.12  65.53  74.73
         74.73  74.74  82.10  82.10
  18  1 -17.25 -14.46 -14.46 -14.46 -12.31 -12.31 -12.31  -9.26  -9.26  -9.26
         -8.27  -8.27  -8.27  -7.81  -6.04  -6.04  -4.63  -4.63  -4.63  -3.28
         -3.18  -3.17  -3.17  -2.49  -2.49  -0.33   1.79   1.79   2.12   2.12
          2.12   2.13   2.13   2.13   4.58   5.08   5.08   5.08   5.42   5.42
          5.42   6.08   7.10   7.10   7.10   7.30   7.30   7.30   8.35   8.35
         10.04  10.04  10.04  10.98  10.98  10.98  11.90  11.90  11.90  15.08
         15.08  15.09  15.41  15.41  15.41  17.03  17.04  17.04  17.07  17.07
         17.61  18.58  18.58  18.58  20.15  20.15  20.16  20.90  20.90  21.81
         21.81  21.81  22.03  23.99  23.99  23.99  32.53  32.54  32.54  33.41
         33.41  38.48  43.39  43.40  43.40  62.14  62.16  62.16  66.23  73.55
         73.55  73.57  87.42  87.42
  19  1 -17.32 -14.36 -14.36 -14.35 -12.43 -12.43 -12.43  -9.16  -9.16  -9.16
         -8.33  -8.32  -8.32  -7.45  -5.96  -5.96  -4.71  -4.70  -4.70  -3.52
         -3.52  -3.52  -3.20  -2.59  -2.59  -0.66   1.87   1.87   2.48   2.48
          2.48   2.53   2.53   2.53   4.40   5.16   5.16   5.16   5.48   5.48
          5.48   6.10   7.08   7.08   7.08   7.30   7.30   7.30   7.99   7.99
          9.61   9.61   9.61  10.48  10.48  10.48  12.38  12.38  12.38  15.02
         15.02  15.02  15.68  15.69  15.69  17.11  17.12  17.12  17.55  17.55
         17.71  18.56  18.56  18.56  19.72  19.72  19.73  20.84  20.84  21.21
         21.76  21.76  21.76  23.57  23.57  23.57  32.38  32.39  32.39  33.83
         33.83  37.79  41.57  41.58  41.58  63.13  63.15  63.15  68.34  72.39
         72.39  72.42  93.86  93.86
  20  1 -17.38 -14.25 -14.25 -14.25 -12.57 -12.57 -12.57  -9.05  -9.05  -9.05
         -8.38  -8.38  -8.38  -7.09  -5.89  -5.89  -4.77  -4.77  -4.77  -3.84
         -3.83  -3.83  -3.12  -2.70  -2.70  -0.99   1.97   1.97   2.84   2.84
          2.84   2.91   2.91   2.91   4.24   5.24   5.24   5.25   5.54   5.54
          5.54   6.17   7.07   7.07   7.07   7.30   7.30   7.30   7.65   7.65
          9.18   9.18   9.18   9.97   9.97   9.97  12.88  12.88  12.88  15.00
         15.00  15.01  15.90  15.90  15.90  17.18  17.18  17.18  17.70  18.00
         18.00  18.54  18.54  18.54  19.33  19.33  19.34  20.54  20.78  20.78
         21.62  21.62  21.62  23.20  23.20  23.20  32.44  32.45  32.45  34.22
         34.22  36.86  40.12  40.13  40.13  64.05  64.07  64.07  71.26  71.26
         71.29  71.73 101.35 101.35
  21  1 -17.43 -14.13 -14.13 -14.13 -12.71 -12.71 -12.71  -8.93  -8.93  -8.93
         -8.42  -8.42  -8.42  -6.74  -5.82  -5.82  -4.83  -4.82  -4.82  -4.13
         -4.12  -4.12  -3.06  -2.80  -2.80  -1.30   2.07   2.07   3.19   3.19
          3.19   3.27   3.27   3.27   4.14   5.34   5.34   5.34   5.61   5.61
          5.61   6.25   7.05   7.05   7.05   7.29   7.29   7.29   7.35   7.35
          8.76   8.76   8.76   9.48   9.48   9.48  13.37  13.37  13.37  15.02
         15.02  15.03  16.05  16.06  16.06  17.21  17.21  17.21  17.51  18.41
         18.41  18.48  18.48  18.48  18.97  18.97  18.98  20.11  20.69  20.69
         21.46  21.46  21.46  22.87  22.87  22.87  32.71  32.72  32.72  34.56
         34.56  35.95  38.97  38.97  38.97  64.88  64.90  64.90  70.18  70.18
         70.21  76.45 109.65 109.65
  22  1 -17.47 -14.01 -14.01 -14.01 -12.86 -12.86 -12.86  -8.81  -8.81  -8.81
         -8.46  -8.45  -8.45  -6.41  -5.75  -5.75  -4.87  -4.87  -4.87  -4.38
         -4.38  -4.38  -3.02  -2.89  -2.89  -1.59   2.18   2.18   3.52   3.52
          3.52   3.59   3.59   3.59   4.14   5.45   5.45   5.45   5.68   5.68
          5.68   6.33   7.04   7.04   7.04   7.07   7.07   7.29   7.29   7.29
          8.35   8.35   8.35   9.00   9.01   9.01  13.86  13.86  13.86  15.07
         15.07  15.07  16.16  16.17  16.17  17.13  17.19  17.19  17.19  18.38
         18.38  18.38  18.65  18.65  18.66  18.78  18.78  19.95  20.58  20.58
         21.33  21.33  21.33  22.57  22.57  22.57  33.15  33.16  33.16  34.85
         34.85  35.25  38.04  38.04  38.04  65.60  65.62  65.62  69.19  69.19
         69.22  83.01 118.25 118.25
  23  1 -17.50 -13.88 -13.88 -13.88 -13.02 -13.02 -13.01  -8.70  -8.70  -8.70
         -8.49  -8.48  -8.48  -6.11  -5.70  -5.70  -4.91  -4.90  -4.90  -4.59
         -4.59  -4.59  -3.01  -2.97  -2.97  -1.84   2.27   2.27   3.80   3.80
[...]
         73.18  86.36  88.80  91.09
  93  1 -16.53 -15.85 -14.69 -14.34 -12.48 -12.09 -10.66  -9.92  -9.67  -9.60
         -8.55  -8.31  -8.09  -7.84  -7.59  -6.65  -3.52  -3.50  -3.03  -2.39
         -2.18  -1.88  -1.87  -1.08  -1.05  -0.88  -0.65  -0.54   0.43   0.45
          1.10   1.88   1.90   1.93   2.53   3.44   3.90   3.92   4.56   5.53
          5.63   5.65   7.46   7.78   8.17   8.42   8.87   9.21   9.41  10.08
         10.37  10.94  11.01  11.26  11.40  11.71  11.98  12.36  12.93  13.27
         14.02  14.22  14.46  14.54  14.63  15.64  16.10  16.32  16.37  17.06
         17.64  17.75  18.68  18.82  19.38  20.72  21.79  22.16  23.12  23.30
         23.67  23.89  24.66  25.04  26.29  26.48  32.62  37.21  38.61  40.55
         43.68  53.41  53.68  56.73  57.95  63.77  65.86  67.31  68.02  69.01
         73.27  86.37  88.84  91.09
  94  1 -16.32 -15.68 -14.76 -14.76 -12.41 -12.41 -11.36 -10.56  -9.16  -9.16
         -8.13  -7.82  -7.82  -7.50  -6.98  -6.95  -3.63  -3.41  -3.27  -3.26
         -2.32  -1.69  -1.69  -1.50  -1.40  -0.69  -0.54   0.30   0.31   0.44
          0.68   0.68   2.72   2.72   3.18   3.23   4.76   4.88   5.04   5.28
          5.37   5.37   6.40   6.40   7.21   8.09   8.72   9.09   9.09   9.12
          9.27   9.28  11.05  11.37  11.37  11.74  13.00  13.26  13.45  13.46
         13.56  14.66  14.97  14.97  16.14  16.14  16.56  16.65  17.16  17.42
         17.42  17.81  17.81  19.20  19.20  19.20  20.80  22.14  22.28  23.85
         24.44  24.44  25.24  27.20  27.92  27.92  32.49  33.34  36.16  36.16
         41.41  49.37  55.70  55.70  56.82  61.87  64.03  68.66  68.83  68.83
         81.90  86.45  86.48  94.53
  95  1 -15.91 -15.36 -15.36 -15.00 -12.44 -12.04 -12.04 -11.41  -8.68  -8.25
         -8.25  -7.53  -7.26  -7.23  -7.23  -6.66  -3.53  -3.47  -3.10  -3.10
         -2.39  -2.38  -2.02  -1.98  -1.56  -1.18  -1.05  -1.05   1.20   1.20
          2.00   2.20   2.38   3.04   3.43   3.86   3.87   4.24   4.24   4.47
          5.08   6.91   6.92   7.09   7.09   7.62   7.96   8.58   8.75   8.75
          8.86   9.18   9.25  10.04  10.46  10.46  13.78  14.04  14.04  15.02
         15.03  15.08  15.52  15.76  15.81  15.93  16.53  16.53  17.68  18.35
         18.36  18.36  18.99  18.99  19.32  19.81  20.50  20.51  21.18  21.82
         26.80  27.05  27.05  28.75  28.90  32.36  32.36  34.41  39.64  41.16
         41.19  48.04  55.25  55.29  57.65  58.89  64.87  76.96  76.96  81.08
         81.29  81.29  90.12  91.13
  96  1 -15.91 -15.36 -15.36 -15.00 -12.44 -12.05 -12.04 -11.40  -8.68  -8.26
         -8.25  -7.53  -7.27  -7.23  -7.22  -6.67  -3.54  -3.48  -3.10  -3.09
         -2.38  -2.38  -2.02  -1.99  -1.56  -1.18  -1.05  -1.04   1.21   1.22
          2.00   2.20   2.40   3.02   3.42   3.85   3.86   4.22   4.23   4.48
          5.09   6.90   6.90   7.07   7.08   7.62   7.96   8.57   8.75   8.75
          8.86   9.18   9.27  10.05  10.47  10.49  13.79  14.03  14.04  15.02
         15.03  15.09  15.54  15.79  15.83  15.93  16.50  16.50  17.68  18.34
         18.38  18.39  18.98  18.99  19.33  19.79  20.49  20.49  21.17  21.84
         26.79  27.03  27.08  28.73  28.91  32.34  32.36  34.43  39.58  41.16
         41.20  48.03  55.28  55.35  57.57  58.88  64.74  76.87  76.90  81.14
         81.28  81.30  90.17  90.60
  97  1 -15.91 -15.36 -15.36 -15.00 -12.45 -12.04 -12.04 -11.40  -8.68  -8.25
         -8.25  -7.54  -7.26  -7.24  -7.23  -6.66  -3.54  -3.47  -3.10  -3.10
         -2.39  -2.39  -2.03  -1.99  -1.55  -1.17  -1.04  -1.04   1.21   1.22
          2.01   2.21   2.39   3.02   3.41   3.85   3.86   4.23   4.23   4.47
          5.07   6.90   6.90   7.09   7.09   7.62   7.95   8.56   8.74   8.74
          8.87   9.19   9.26  10.05  10.49  10.49  13.80  14.04  14.04  15.04
         15.05  15.08  15.53  15.76  15.81  15.92  16.50  16.51  17.67  18.34
         18.37  18.37  19.00  19.00  19.32  19.81  20.49  20.50  21.17  21.84
         26.82  27.04  27.04  28.70  28.94  32.35  32.36  34.40  39.63  41.12
         41.14  48.09  55.12  55.17  57.58  58.93  64.81  76.91  76.92  81.06
         81.24  81.26  90.17  90.78
  98  1 -16.09 -15.47 -15.47 -14.93 -11.99 -11.35 -11.35 -10.55  -9.70  -9.19
         -9.19  -8.59  -7.39  -7.33  -7.33  -6.59  -3.62  -2.91  -2.69  -2.68
         -2.02  -2.02  -1.62  -1.43  -0.33  -0.32  -0.29  -0.14   0.22   0.22
          0.51   0.99   1.53   1.93   2.29   2.55   2.56   4.07   4.07   5.13
          5.70   7.63   7.63   7.94   8.51   8.51   9.30   9.51   9.75   9.84
          9.84  10.55  11.05  11.63  11.63  12.02  12.64  12.81  12.89  12.89
         13.50  13.70  13.71  14.42  14.93  15.17  15.18  15.43  17.50  18.32
         18.33  19.16  19.96  19.96  20.36  20.42  21.65  21.65  21.85  22.38
         25.28  25.92  26.07  26.08  27.81  35.82  35.82  40.88  44.26  44.27
         50.71  51.73  53.85  53.87  59.45  61.18  62.78  69.90  69.94  81.19
         81.21  82.44  84.78  87.58
  99  1 -16.09 -15.47 -15.46 -14.93 -11.99 -11.35 -11.35 -10.56  -9.70  -9.20
         -9.19  -8.58  -7.39  -7.33  -7.33  -6.59  -3.62  -2.91  -2.69  -2.69
         -2.01  -2.01  -1.62  -1.42  -0.34  -0.33  -0.29  -0.15   0.21   0.21
          0.50   0.98   1.54   1.93   2.29   2.57   2.57   4.07   4.07   5.13
          5.70   7.63   7.63   7.95   8.51   8.52   9.29   9.51   9.73   9.85
          9.86  10.56  11.08  11.61  11.61  12.01  12.63  12.80  12.87  12.87
         13.48  13.69  13.69  14.43  14.93  15.20  15.21  15.43  17.51  18.32
         18.33  19.18  19.96  19.96  20.36  20.42  21.66  21.66  21.85  22.37
         25.28  25.90  26.08  26.08  27.83  35.82  35.82  40.89  44.30  44.32
         50.73  51.76  53.84  53.86  59.53  61.07  62.82  70.06  70.08  81.20
         81.22  82.45  84.75  87.54
 100  1 -15.91 -15.36 -15.36 -15.00 -12.44 -12.04 -12.04 -11.41  -8.68  -8.25
         -8.25  -7.53  -7.26  -7.23  -7.23  -6.66  -3.53  -3.47  -3.10  -3.10
         -2.39  -2.38  -2.02  -1.98  -1.56  -1.18  -1.05  -1.05   1.20   1.20
          2.00   2.20   2.38   3.04   3.43   3.86   3.87   4.24   4.24   4.47
          5.08   6.91   6.92   7.09   7.09   7.62   7.96   8.58   8.75   8.75
          8.86   9.18   9.25  10.04  10.46  10.46  13.78  14.04  14.04  15.02
         15.03  15.08  15.52  15.76  15.81  15.93  16.53  16.53  17.68  18.35
         18.36  18.36  18.99  18.99  19.32  19.81  20.50  20.51  21.18  21.82
         26.80  27.05  27.05  28.75  28.90  32.36  32.36  34.41  39.64  41.16
         41.19  48.04  55.25  55.29  57.65  58.89  64.87  76.96  76.96  81.08
         81.29  81.29  90.12  91.13
 101  1 -15.59 -15.23 -15.23 -15.23 -12.54 -12.54 -12.54 -12.15  -7.48  -7.48
         -7.47  -7.05  -7.05  -7.05  -6.82  -6.82  -4.16  -3.69  -3.69  -3.69
         -2.30  -2.30  -2.29  -2.16  -2.16  -1.87  -1.87  -1.87   2.68   2.69
          2.69   3.10   3.98   3.98   4.03   4.03   4.03   4.98   5.32   5.32
          5.32   6.08   6.09   6.09   6.23   6.23   6.24   7.64   7.64   7.84
          7.85   7.85   8.61   8.61   8.62   8.68  15.92  15.92  15.93  15.97
         16.44  16.44  16.68  16.68  16.69  17.35  17.35  17.35  18.12  18.13
         18.13  18.94  18.94  18.94  19.40  19.40  19.40  20.00  20.00  21.83
         28.21  28.21  28.21  29.66  29.66  29.85  29.85  29.86  51.03  51.03
         51.05  57.19  60.07  60.13  60.13  71.72  71.72  71.97  71.97  72.01
         88.50  88.50  88.51 102.37
 102  1 -15.59 -15.23 -15.23 -15.23 -12.55 -12.54 -12.54 -12.14  -7.47  -7.47
         -7.46  -7.06  -7.06  -7.05  -6.83  -6.82  -4.17  -3.69  -3.69  -3.68
         -2.30  -2.30  -2.29  -2.17  -2.16  -1.87  -1.86  -1.86   2.69   2.70
          2.70   3.09   3.98   4.00   4.02   4.03   4.03   4.99   5.31   5.31
          5.31   6.07   6.08   6.08   6.22   6.22   6.22   7.65   7.66   7.85
          7.85   7.85   8.62   8.63   8.63   8.68  15.92  15.93  15.93  15.99
         16.44  16.46  16.68  16.70  16.70  17.33  17.33  17.34  18.11  18.13
         18.13  18.95  18.95  18.95  19.38  19.39  19.39  19.98  20.00  21.86
         28.20  28.20  28.22  29.65  29.66  29.85  29.86  29.87  50.98  50.99
         51.15  57.20  59.98  60.00  60.22  71.15  71.40  72.02  72.07  72.09
         88.46  88.48  88.52 102.26
 103  1 -15.91 -15.36 -15.36 -15.00 -12.44 -12.05 -12.04 -11.40  -8.68  -8.26
         -8.25  -7.53  -7.27  -7.23  -7.22  -6.67  -3.54  -3.48  -3.10  -3.09
         -2.38  -2.38  -2.02  -1.99  -1.56  -1.18  -1.05  -1.04   1.21   1.22
          2.00   2.20   2.40   3.02   3.42   3.85   3.86   4.22   4.23   4.48
          5.09   6.90   6.90   7.07   7.08   7.62   7.96   8.57   8.75   8.75
          8.86   9.18   9.27  10.05  10.47  10.49  13.79  14.03  14.04  15.02
         15.03  15.09  15.54  15.79  15.83  15.93  16.50  16.50  17.68  18.34
         18.38  18.39  18.98  18.99  19.33  19.79  20.49  20.49  21.17  21.84
         26.79  27.03  27.08  28.73  28.91  32.34  32.36  34.43  39.58  41.16
         41.20  48.03  55.28  55.35  57.57  58.88  64.74  76.87  76.90  81.14
         81.28  81.30  90.17  90.60
 104  1 -16.09 -15.47 -15.47 -14.93 -11.98 -11.36 -11.35 -10.55  -9.70  -9.20
         -9.19  -8.58  -7.40  -7.33  -7.32  -6.60  -3.63  -2.92  -2.68  -2.68
         -2.02  -2.01  -1.62  -1.43  -0.33  -0.32  -0.29  -0.15   0.22   0.22
          0.50   0.98   1.53   1.92   2.31   2.56   2.57   4.05   4.05   5.15
          5.72   7.61   7.62   7.94   8.51   8.52   9.30   9.51   9.74   9.84
          9.86  10.56  11.06  11.61  11.62  12.02  12.64  12.81  12.87  12.88
         13.49  13.68  13.69  14.46  14.94  15.17  15.18  15.44  17.52  18.34
         18.34  19.16  19.95  19.96  20.34  20.42  21.65  21.65  21.85  22.38
         25.26  25.89  26.08  26.10  27.81  35.82  35.84  40.83  44.30  44.31
         50.62  51.80  53.91  54.01  59.54  61.17  62.71  69.91  69.94  81.13
         81.14  82.50  84.79  87.59
 105  1 -16.09 -15.47 -15.47 -14.93 -11.98 -11.36 -11.35 -10.55  -9.70  -9.20
         -9.19  -8.58  -7.40  -7.33  -7.32  -6.60  -3.63  -2.92  -2.68  -2.68
         -2.02  -2.01  -1.62  -1.43  -0.33  -0.32  -0.29  -0.15   0.22   0.22
          0.50   0.98   1.53   1.92   2.31   2.56   2.57   4.05   4.05   5.15
          5.72   7.61   7.62   7.94   8.51   8.52   9.30   9.51   9.74   9.84
          9.86  10.56  11.06  11.61  11.62  12.02  12.64  12.81  12.87  12.88
         13.49  13.68  13.69  14.46  14.94  15.17  15.18  15.44  17.52  18.34
         18.34  19.16  19.95  19.96  20.34  20.42  21.65  21.65  21.85  22.38
         25.26  25.89  26.08  26.10  27.81  35.82  35.84  40.83  44.30  44.31
         50.62  51.80  53.91  54.01  59.54  61.17  62.71  69.91  69.94  81.13
         81.14  82.50  84.79  87.59
 106  1 -15.91 -15.36 -15.36 -15.00 -12.44 -12.05 -12.04 -11.40  -8.68  -8.26
         -8.25  -7.53  -7.27  -7.23  -7.22  -6.67  -3.54  -3.48  -3.10  -3.09
         -2.38  -2.38  -2.02  -1.99  -1.56  -1.18  -1.05  -1.04   1.21   1.22
          2.00   2.20   2.40   3.02   3.42   3.85   3.86   4.22   4.23   4.48
          5.09   6.90   6.90   7.07   7.08   7.62   7.96   8.57   8.75   8.75
          8.86   9.18   9.27  10.05  10.47  10.49  13.79  14.03  14.04  15.02
         15.03  15.09  15.54  15.79  15.83  15.93  16.50  16.50  17.68  18.34
         18.38  18.39  18.98  18.99  19.33  19.79  20.49  20.49  21.17  21.84
         26.79  27.03  27.08  28.73  28.91  32.34  32.36  34.43  39.58  41.16
         41.20  48.03  55.28  55.35  57.57  58.88  64.74  76.87  76.90  81.14
         81.28  81.30  90.17  90.60
 107  1 -15.59 -15.23 -15.23 -15.23 -12.55 -12.54 -12.54 -12.14  -7.47  -7.47
         -7.46  -7.06  -7.06  -7.05  -6.83  -6.82  -4.17  -3.69  -3.69  -3.68
         -2.30  -2.30  -2.29  -2.17  -2.16  -1.87  -1.86  -1.86   2.69   2.70
          2.70   3.09   3.98   4.00   4.02   4.03   4.03   4.99   5.31   5.31
          5.31   6.07   6.08   6.08   6.22   6.22   6.22   7.65   7.66   7.85
          7.85   7.85   8.62   8.63   8.63   8.68  15.92  15.93  15.93  15.99
         16.44  16.46  16.68  16.70  16.70  17.33  17.33  17.34  18.11  18.13
         18.13  18.95  18.95  18.95  19.38  19.39  19.39  19.98  20.00  21.86
         28.20  28.20  28.22  29.65  29.66  29.85  29.86  29.87  50.98  50.99
         51.15  57.20  59.98  60.00  60.22  71.15  71.40  72.02  72.07  72.09
         88.46  88.48  88.52 102.26
 108  1 -15.59 -15.23 -15.23 -15.23 -12.55 -12.54 -12.54 -12.14  -7.47  -7.47
         -7.46  -7.06  -7.06  -7.05  -6.83  -6.82  -4.17  -3.69  -3.69  -3.68
         -2.30  -2.30  -2.29  -2.17  -2.16  -1.87  -1.86  -1.86   2.69   2.70
          2.70   3.09   3.98   4.00   4.02   4.03   4.03   4.99   5.31   5.31
          5.31   6.07   6.08   6.08   6.22   6.22   6.22   7.65   7.66   7.85
          7.85   7.85   8.62   8.63   8.63   8.68  15.92  15.93  15.93  15.99
         16.44  16.46  16.68  16.70  16.70  17.33  17.33  17.34  18.11  18.13
         18.13  18.95  18.95  18.95  19.38  19.39  19.39  19.98  20.00  21.86
         28.20  28.20  28.22  29.65  29.66  29.85  29.86  29.87  50.98  50.99
         51.15  57.20  59.98  60.00  60.22  71.15  71.40  72.02  72.07  72.09
         88.46  88.48  88.52 102.26
siesta: Fermi energy =      -5.324305 eV

siesta: Program's energy decomposition (eV):
siesta: Ebs     =      -343.318693
siesta: Eions   =      1510.441798
siesta: Ena     =       465.680833
siesta: Ekin    =       324.285274
siesta: Enl     =       110.870405
siesta: DEna    =         5.337927
siesta: DUscf   =         1.517693
siesta: DUext   =         0.000000
siesta: Exc     =      -259.213605
siesta: eta*DQ  =         0.000000
siesta: Emadel  =         0.000000
siesta: Emeta   =         0.000000
siesta: Emolmec =         0.000000
siesta: Ekinion =         0.000000
siesta: Eharris =      -861.970014
siesta: Etot    =      -861.963270
siesta: FreeEng =      -861.963270

siesta: Final energy (eV):
siesta:  Band Struct. =    -343.318693
siesta:       Kinetic =     324.285274
siesta:       Hartree =      58.173882
siesta:    Ext. field =       0.000000
siesta:   Exch.-corr. =    -259.213605
siesta:  Ion-electron =    -445.953339
siesta:       Ion-ion =    -539.255481
siesta:       Ekinion =       0.000000
siesta:         Total =    -861.963270

siesta: Stress tensor (static) (eV/Ang**3):
siesta:     0.003611   -0.000038   -0.000038
siesta:    -0.000038    0.003611   -0.000038
siesta:    -0.000038   -0.000038    0.003611

siesta: Constrained stress tensor (static) (eV/Ang**3):
siesta:     0.003611   -0.000038   -0.000038
siesta:    -0.000038    0.003611   -0.000038
siesta:    -0.000038   -0.000038    0.003611

siesta: Cell volume =        162.183504 Ang**3

siesta: Pressure (static):
siesta:                Solid            Molecule  Units
siesta:          -0.00003933         -0.00004750  Ry/Bohr**3
siesta:          -0.00361088         -0.00436117  eV/Ang**3
siesta:          -5.78532385         -6.98744470  kBar
(Free)E+ p_basis*V_orbitals  =        -852.989667
(Free)Eharris+ p_basis*V_orbitals  =        -853.007913

* Maximum dynamic memory allocated : Node    0 =    88 MB

* Maximum memory occured during init_pulay_arrrays            

timer: CPU execution times:
timer:  Routine       Calls   Time/call    Tot.time        %
timer:  siesta            1     801.890     801.890   100.00
timer:  Setup             1       0.112       0.112     0.01
timer:  bands             3       0.553       1.660     0.21
timer:  writewave         3       0.005       0.016     0.00
timer:  KSV_init          1       0.000       0.000     0.00
timer:  IterMD            9      88.887     799.986    99.76
timer:  hsparse           9       0.189       1.704     0.21
timer:  overlap           9       0.124       1.116     0.14
timer:  IterSCF          50      13.398     669.894    83.54
timer:  kinefsm          18       0.122       2.192     0.27
timer:  nlefsm           18       3.869      69.636     8.68
timer:  DHSCF            59       7.307     431.123    53.76
timer:  DHSCF1            9       0.046       0.416     0.05
timer:  DHSCF2            9       2.119      19.069     2.38
timer:  REORD           372       0.000       0.028     0.00
timer:  POISON           68       0.005       0.336     0.04
timer:  DHSCF3           59       6.452     380.640    47.47
timer:  rhoofd           59       3.046     179.703    22.41
timer:  cellXC           59       0.012       0.712     0.09
timer:  vmat             59       3.387     199.840    24.92
timer:  MolMec           18       0.000       0.000     0.00
timer:  diagon           50       5.819     290.942    36.28
timer:  c-eigval       5501       0.016      89.326    11.14
timer:  c-buildHS      5501       0.012      64.553     8.05
timer:  cdiag         10902       0.007      75.984     9.48
timer:  cdiag1        10902       0.001       5.588     0.70
timer:  cdiag2        10902       0.002      19.708     2.46
timer:  cdiag3        10902       0.004      48.940     6.10
timer:  cdiag4        10902       0.000       1.400     0.17
timer:  c-eigvec       5401       0.021     114.511    14.28
timer:  c-buildD       5400       0.016      88.293    11.01
timer:  DHSCF4            9       3.442      30.974     3.86
timer:  dfscf             9       3.284      29.554     3.69
timer:  overfsm           9       0.119       1.068     0.13
timer:  optical           1       0.000       0.000     0.00
  

elaps: ELAPSED times:
elaps:  Routine       Calls   Time/call    Tot.time        %
elaps:  siesta            1     805.688     805.688   100.00
elaps:  Setup             1       0.114       0.114     0.01
elaps:  bands             3       0.554       1.662     0.21
elaps:  writewave         3       0.007       0.020     0.00
elaps:  KSV_init          1       0.000       0.000     0.00
elaps:  IterMD            9      89.308     803.776    99.76
elaps:  hsparse           9       0.190       1.709     0.21
elaps:  overlap           9       0.125       1.126     0.14
elaps:  IterSCF          50      13.463     673.136    83.55
elaps:  kinefsm          18       0.122       2.200     0.27
elaps:  nlefsm           18       3.883      69.886     8.67
elaps:  DHSCF            59       7.342     433.190    53.77
elaps:  DHSCF1            9       0.046       0.415     0.05
elaps:  DHSCF2            9       2.126      19.137     2.38
elaps:  REORD           372       0.000       0.042     0.01
elaps:  POISON           68       0.005       0.315     0.04
elaps:  DHSCF3           59       6.483     382.502    47.48
elaps:  rhoofd           59       3.060     180.564    22.41
elaps:  cellXC           59       0.012       0.725     0.09
elaps:  vmat             59       3.404     200.849    24.93
elaps:  MolMec           18       0.000       0.001     0.00
elaps:  diagon           50       5.847     292.342    36.28
elaps:  c-eigval       5501       0.016      89.733    11.14
elaps:  c-buildHS      5501       0.012      64.877     8.05
elaps:  cdiag         10902       0.007      76.023     9.44
elaps:  cdiag1        10902       0.001       5.585     0.69
elaps:  cdiag2        10902       0.002      19.958     2.48
elaps:  cdiag3        10902       0.004      48.811     6.06
elaps:  cdiag4        10902       0.000       1.417     0.18
elaps:  c-eigvec       5401       0.021     114.998    14.27
elaps:  c-buildD       5400       0.016      88.818    11.02
elaps:  DHSCF4            9       3.457      31.115     3.86
elaps:  dfscf             9       3.298      29.686     3.68
elaps:  overfsm           9       0.120       1.076     0.13
elaps:  optical           1       0.000       0.000     0.00
  
>> End of run:   9-MAY-2013  18:21:23

=====================================================================================
=   BAD TERMINATION OF ONE OF YOUR APPLICATION PROCESSES
=   EXIT CODE: 134
=   CLEANING UP REMAINING PROCESSES
=   YOU CAN IGNORE THE BELOW CLEANUP MESSAGES
=====================================================================================
APPLICATION TERMINATED WITH THE EXIT STRING: Aborted (signal 6)
