Siesta Version:                                        siesta-3.2
Architecture  : x86_64-unknown-linux-gnu--unknown
Compiler flags: f95 -g -O2
SERIAL version

* Running in serial mode
>> Start of run:   9-MAY-2013  21:12:26

                           ***********************       
                           *  WELCOME TO SIESTA  *       
                           ***********************       

reinit: Reading from standard input
************************** Dump of input data file ****************************
Siesta Version:                                        siesta-3.2
Architecture  : x86_64-unknown-linux-gnu--unknown
Compiler flags: f95 -g -O2
SERIAL version

* Running in serial mode
>> Start of run:   9-MAY-2013  21:12:26

                           ***********************       
                           *  WELCOME TO SIESTA  *       
                           ***********************       

reinit: Reading from standard input
************************** Dump of input data file ****************************
************************** End of input data file *****************************

reinit: -----------------------------------------------------------------------
reinit: System Name: 
reinit: -----------------------------------------------------------------------
reinit: System Label: siesta                                                      
reinit: -----------------------------------------------------------------------
# FDF for silicon
SystemName             silicon          # Descriptive name of the system
SystemLabel            si          # Short name for naming files
NumberOfAtoms 8
NumberOfSpecies 1
%block ChemicalSpeciesLabel
1 14 Si
%endblock ChemicalSpeciesLabel
LatticeConstant  5.20 Ang
##Basis set Definition##
PAO.BasisType          split        # Type of PAO basis set
PAO.EnergyShift        50 meV
PAO.BasisSize          DZP          # (DZP) Double-z + polarization
#%block LatticeVectors
#0.500 0.500 0.000
#0.500 0.000 0.500
#0.000 0.500 0.500
#%endblock LatticeVectors
AtomicCoordinatesFormat NotScaledCartesianAng
%block AtomicCoordinatesAndAtomicSpecies
	0.00000000	0.00000000	0.00000000  1 Si  1
	1.36000000	1.36000000	1.36000000  1 Si  2
	2.72000000	2.72000000	0.00000000  1 Si  3
	4.08000000	4.08000000	1.36000000  1 Si  4
	2.72000000	0.00000000	2.72000000  1 Si  5
	4.08000000	1.36000000	4.08000000  1 Si  6
	0.00000000	2.72000000	2.72000000  1 Si  7
	1.36000000	4.08000000	4.08000000  1 Si  8
%endblock AtomicCoordinatesAndAtomicSpecies
MeshCutoff 100.0 Ry # 100, 120, 180, 260
kgrid_cutoff 30.0 Bohr # 30, 35, 40, 45
DM.Mixingweight  0.3
DM.NumberPulay    3
DM.Tolerance      1.d-3
DM.UseSaveDM      true
ElectronicTemperature 25 meV
SolutionMethod    diagon
XC.functional      GGA	    # Generalized Gradient Approximation
XC.authors        PBE          # Perdew-Burke-Ernzerhof
SpinPolarized     false
MD.TypeOfRun           CG           # Type of dynamics:
MD.VariableCell        true
MD.NumCGsteps          100          # Number of CG steps for coordinate optimization
MD.MaxCGDispl          0.2 Bohr     # Maximum atomic displacement
                                    #   in one CG step (Bohr)
MD.MaxForceTol         0.04 eV/Ang  # Tolerance in the maximum
                                    #   atomic force (Ry/Bohr)
				
##Output Specification##
WriteMDhistory         true         # Trajectory information
WriteCoorStep          true
WriteCoorXmol          true
WriteMDXmol            true
WriteEigenvalues true
WriteKbands      true
WriteBands       true
WriteWaveFunctions true
WriteMullikenPoP   1
%block BandLines
1	1.000	1.000 1.000 L
25	0.000	0.000	0.000 \Gamma
30	2.000	0.000	0.000 X
10	2.000	0.500	0.500 U
35	0.000	0.000	0.000 \Gamma
%endblock BandLines
%block WaveFuncKPoints
0.0 0.0 0.0 from 1 to 50 # > 16 = 4/2*8 (Valenzelektronen/2, Atomzahl ...)
%endblock WaveFuncKpoints
************************** End of input data file *****************************

reinit: -----------------------------------------------------------------------
reinit: System Name: silicon
reinit: -----------------------------------------------------------------------
reinit: System Label: si                                                          
reinit: -----------------------------------------------------------------------

initatom: Reading input for the pseudopotentials and atomic orbitals ----------
 Species number:            1  Label: Si Atomic number:          14
Ground state valence configuration:   3s02  3p02
Reading pseudopotential information in formatted form from Si.psf

initatom: Reading input for the pseudopotentials and atomic orbitals ----------
No species found!!!
ERROR STOP from Node:    0

Valence configuration for pseudopotential generation:
3s( 2.00) rc: 1.75
3p( 2.00) rc: 1.94
3d( 0.00) rc: 2.09
4f( 0.00) rc: 2.09
For Si, standard SIESTA heuristics set lmxkb to 3
 (one more than the basis l, including polarization orbitals).
Use PS.lmax or PS.KBprojectors blocks to override.

<basis_specs>
===============================================================================
Si                   Z=  14    Mass=  28.090        Charge= 0.17977+309
Lmxo=1 Lmxkb= 3    BasisType=split      Semic=F
L=0  Nsemic=0  Cnfigmx=3
          n=1  nzeta=2  polorb=0
            splnorm:   0.15000    
               vcte:    0.0000    
               rinn:    0.0000    
                rcs:    0.0000      0.0000    
            lambdas:    1.0000      1.0000    
L=1  Nsemic=0  Cnfigmx=3
          n=1  nzeta=2  polorb=1
            splnorm:   0.15000    
               vcte:    0.0000    
               rinn:    0.0000    
                rcs:    0.0000      0.0000    
            lambdas:    1.0000      1.0000    
-------------------------------------------------------------------------------
L=0  Nkbl=1  erefs: 0.17977+309
L=1  Nkbl=1  erefs: 0.17977+309
L=2  Nkbl=1  erefs: 0.17977+309
L=3  Nkbl=1  erefs: 0.17977+309
===============================================================================
</basis_specs>

atom: Called for Si                    (Z =  14)

read_vps: Pseudopotential generation method:
read_vps: ATM3      Troullier-Martins                       
Total valence charge:    4.00000

read_vps: Pseudopotential includes a core correction:
read_vps: Pseudo-core for xc-correction

xc_check: Exchange-correlation functional:
xc_check: GGA Perdew, Burke & Ernzerhof 1996
V l=0 = -2*Zval/r beyond r=  2.0104
V l=1 = -2*Zval/r beyond r=  2.0873
V l=2 = -2*Zval/r beyond r=  2.1670
V l=3 = -2*Zval/r beyond r=  2.1670
All V_l potentials equal beyond r=  2.0613
This should be close to max(r_c) in ps generation
All pots = -2*Zval/r beyond r=  2.1670

VLOCAL1: 99.0% of the norm of Vloc inside     10.216 Ry
VLOCAL1: 99.9% of the norm of Vloc inside     23.282 Ry
atom: Maximum radius for 4*pi*r*r*local-pseudopot. charge    2.45560
atom: Maximum radius for r*vlocal+2*Zval:    2.14012
GHOST: No ghost state for L =  0
GHOST: No ghost state for L =  1
GHOST: No ghost state for L =  2
GHOST: No ghost state for L =  3

KBgen: Kleinman-Bylander projectors: 
   l= 0   rc=  2.306811   el= -0.791441   Ekb=  5.289775   kbcos=  0.291595
   l= 1   rc=  2.394965   el= -0.300632   Ekb=  1.944256   kbcos=  0.287657
   l= 2   rc=  2.549439   el=  0.001958   Ekb= -1.788485   kbcos= -0.056492
   l= 3   rc=  2.782581   el=  0.003046   Ekb= -0.472620   kbcos= -0.006203

KBgen: Total number of  Kleinman-Bylander projectors:   16
atom: -------------------------------------------------------------------------

atom: SANKEY-TYPE ORBITALS:
atom: Selected multiple-zeta basis: split     

SPLIT: Orbitals with angular momentum L= 0

SPLIT: Basis orbitals for state 3s

SPLIT: PAO cut-off radius determined from an
SPLIT: energy shift=  0.003675 Ry

   izeta = 1
                 lambda =    1.000000
                     rc =    6.116033
                 energy =   -0.788343
                kinetic =    0.528041
    potential(screened) =   -1.316383
       potential(ionic) =   -3.704743

   izeta = 2
                 rmatch =    4.530823
              splitnorm =    0.150000
                 energy =   -0.692892
                kinetic =    0.848665
    potential(screened) =   -1.541557
       potential(ionic) =   -4.044985

SPLIT: Orbitals with angular momentum L= 1

SPLIT: Basis orbitals for state 3p

SPLIT: PAO cut-off radius determined from an
SPLIT: energy shift=  0.003675 Ry

   izeta = 1
                 lambda =    1.000000
                     rc =    7.853192
                 energy =   -0.297152
                kinetic =    0.797948
    potential(screened) =   -1.095101
       potential(ionic) =   -3.275753

   izeta = 2
                 rmatch =    5.330310
              splitnorm =    0.150000
                 energy =   -0.228170
                kinetic =    1.148579
    potential(screened) =   -1.376749
       potential(ionic) =   -3.739005

POLgen: Perturbative polarization orbital with L=  2

POLgen: Polarization orbital for state 3p

   izeta = 1
                     rc =    7.853192
                 energy =    0.340222
                kinetic =    1.096718
    potential(screened) =   -0.756496
       potential(ionic) =   -2.716423
atom: Total number of Sankey-type orbitals: 13

atm_pop: Valence configuration (for local Pseudopot. screening):
 3s( 2.00)                                                            
 3p( 2.00)                                                            
Vna: chval, zval:    4.00000   4.00000

Vna:  Cut-off radius for the neutral-atom potential:   7.853192
comcore: Pseudo-core radius Rcore=  2.999314

atom: _________________________________________________________________________

prinput: Basis input ----------------------------------------------------------

PAO.BasisType split     

%block ChemicalSpeciesLabel
    1   14 Si                      # Species index, atomic number, species label
%endblock ChemicalSpeciesLabel

%block PAO.Basis                 # Define Basis set
Si                    2                    # Species label, number of l-shells
 n=3   0   2                         # n, l, Nzeta 
   6.116      4.531   
   1.000      1.000   
 n=3   1   2 P   1                   # n, l, Nzeta, Polarization, NzetaPol
   7.853      5.330   
   1.000      1.000   
%endblock PAO.Basis

prinput: ----------------------------------------------------------------------

coor:   Atomic-coordinates input format  =     Cartesian coordinates
coor:                                          (in Angstroms)

siesta: Atomic coordinates (Bohr) and species
siesta:      0.00000   0.00000   0.00000  1        1
siesta:      2.57003   2.57003   2.57003  1        2
siesta:      5.14006   5.14006   0.00000  1        3
siesta:      7.71009   7.71009   2.57003  1        4
siesta:      5.14006   0.00000   5.14006  1        5
siesta:      7.71009   2.57003   7.71009  1        6
siesta:      0.00000   5.14006   5.14006  1        7
siesta:      2.57003   7.71009   7.71009  1        8

siesta: System type = bulk      

initatomlists: Number of atoms, orbitals, and projectors:      8   104   128

siesta: ******************** Simulation parameters ****************************
siesta:
siesta: The following are some of the parameters of the simulation.
siesta: A complete list of the parameters used, including default values,
siesta: can be found in file out.fdf
siesta:
redata: Non-Collinear-spin run           =     F
redata: SpinPolarized (Up/Down) run      =     F
redata: Number of spin components        =     1
redata: Long output                      =     F
redata: Number of Atomic Species         =        1
redata: Charge density info will appear in .RHO file
redata: Write Mulliken Pop.              =     Atomic and Orbital charges
redata: Mesh Cutoff                      =   100.0000  Ry
redata: Net charge of the system         =     0.0000 |e|
redata: Max. number of SCF Iter          =       50
redata: Performing Pulay mixing using    =     3 iterations
redata: Mix DM in first SCF step ?       =     F
redata: Write Pulay info on disk?        =     F
redata: Discard 1st Pulay DM after  kick =     F
redata: New DM Mixing Weight             =     0.3000
redata: New DM Occupancy tolerance       = 0.000000000001
redata: No kicks to SCF
redata: DM Mixing Weight for Kicks       =     0.5000
redata: DM Tolerance for SCF             =     0.001000
redata: Require Energy convergence for SCF =     F
redata: DM Energy tolerance for SCF      =     0.000100 eV
redata: Require Harris convergence for SCF =     F
redata: DM Harris energy tolerance for SCF =     0.000100 eV
redata: Using Saved Data (generic)   =     F
redata: Use continuation files for DM    =     T
redata: Neglect nonoverlap interactions  =     F
redata: Method of Calculation            =     Diagonalization
redata: Divide and Conquer               =     T
redata: Electronic Temperature           =     0.0018  Ry
redata: Fix the spin of the system       =     F
redata: Dynamics option                  =     CG coord. optimization
redata: Variable cell                    =     T
redata: Use continuation files for CG    =     F
redata: Max atomic displ per move        =     0.2000  Bohr
redata: Maximum number of CG moves       =      100
redata: Force tolerance                  =     0.0016  Ry/Bohr
redata: Stress tolerance                 =     1.0000  GPa
redata: ***********************************************************************
Total number of electrons:    32.000000
Total ionic charge:    32.000000
 Kpoints in:          196 . Kpoints trimmed:          172

siesta: k-grid: Number of k-points =   172
siesta: k-grid: Cutoff (effective) =    18.200 Ang
siesta: k-grid: Supercell and displacements
siesta: k-grid:    0   7   0      0.000
siesta: k-grid:    0   0   7      0.000
siesta: k-grid:    7   0   0      0.000
Naive supercell factors:     5    5    5

superc: Internal auxiliary supercell:     5 x     5 x     5  =     125
superc: Number of atoms, orbitals, and projectors:   1000  13000  16000

* Maximum dynamic memory allocated =     2 MB

siesta:                 ==============================
                            Begin CG move =      0
                        ==============================

outcoor: Atomic coordinates (Ang):                          
    0.00000000    0.00000000    0.00000000   1       1  Si
    1.36000000    1.36000000    1.36000000   1       2  Si
    2.72000000    2.72000000    0.00000000   1       3  Si
    4.08000000    4.08000000    1.36000000   1       4  Si
    2.72000000    0.00000000    2.72000000   1       5  Si
    4.08000000    1.36000000    4.08000000   1       6  Si
    0.00000000    2.72000000    2.72000000   1       7  Si
    1.36000000    4.08000000    4.08000000   1       8  Si

superc: Internal auxiliary supercell:     5 x     5 x     5  =     125
superc: Number of atoms, orbitals, and projectors:   1000  13000  16000

outcell: Unit cell vectors (Ang):
        5.200000    0.000000    0.000000
        0.000000    5.200000    0.000000
        0.000000    0.000000    5.200000

outcell: Cell vector modules (Ang)   :    5.200000    5.200000    5.200000
outcell: Cell angles (23,13,12) (deg):     90.0000     90.0000     90.0000
outcell: Cell volume (Ang**3)        :    140.6080
New_DM. Step:     1
Initializing Density Matrix...

InitMesh: MESH =    32 x    32 x    32 =       32768
InitMesh: Mesh cutoff (required, used) =   100.000   104.663 Ry

* Maximum dynamic memory allocated =    74 MB

stepf: Fermi-Dirac step function

siesta: Program's energy decomposition (eV):
siesta: Ebs     =      -368.443597
siesta: Eions   =      1510.441798
siesta: Ena     =       459.488303
siesta: Ekin    =       288.667622
siesta: Enl     =       162.085532
siesta: DEna    =         0.000001
siesta: DUscf   =         0.000000
siesta: DUext   =         0.000000
siesta: Exc     =      -453.194833
siesta: eta*DQ  =         0.000000
siesta: Emadel  =         0.000000
siesta: Emeta   =         0.000000
siesta: Emolmec =         0.000000
siesta: Ekinion =         0.000000
siesta: Eharris =     -1028.084910
siesta: Etot    =     -1053.395174
siesta: FreeEng =     -1053.395174

siesta: iscf   Eharris(eV)      E_KS(eV)   FreeEng(eV)   dDmax  Ef(eV)
siesta:    1    -1028.0849    -1053.3952    -1053.3952  1.7029 -5.6343
timer: Routine,Calls,Time,% = IterSCF        1      27.642  97.63
elaps: Routine,Calls,Wall,% = IterSCF        1      27.732  97.62
siesta:    2    -1027.7143    -1027.5646    -1027.5652  0.1540 -5.3232
siesta:    3    -1027.6736    -1028.9797    -1028.9808  0.0864 -5.3655
siesta:    4    -1027.6694    -1027.8240    -1027.8253  0.0148 -5.3764
siesta:    5    -1027.6692    -1027.7172    -1027.7185  0.0066 -5.3776
siesta:    6    -1027.6691    -1027.7001    -1027.7014  0.0034 -5.3787
siesta:    7    -1027.6691    -1027.6934    -1027.6947  0.0021 -5.3788
siesta:    8    -1027.6691    -1027.6843    -1027.6857  0.0011 -5.3786
siesta:    9    -1027.6691    -1027.6777    -1027.6790  0.0006 -5.3784

siesta: E_KS(eV) =            -1027.6714

siesta: E_KS - E_eggbox =     -1027.6714

siesta: Atomic forces (eV/Ang):
----------------------------------------
   Tot    0.002054    0.002062    0.002067
----------------------------------------
   Max    2.548955
   Res    1.724377    sqrt( Sum f_i^2 / 3N )
----------------------------------------
   Max    2.548955    constrained

Stress-tensor-Voigt (kbar):     -239.58     -239.58     -239.58       55.08       55.08       55.08
(Free)E + p*V (eV/cell)    -1006.6469
Target enthalpy (eV/cell)    -1027.6728

siesta: Stress tensor (static) (eV/Ang**3):
        -0.149535    0.034380    0.034380
         0.034380   -0.149535    0.034380
         0.034380    0.034380   -0.149535

siesta: Pressure (static):        239.58415250  kBar

siesta: Stress tensor (total) (eV/Ang**3):
        -0.149535    0.034380    0.034380
         0.034380   -0.149535    0.034380
         0.034380    0.034380   -0.149535

siesta: Pressure (total):        239.58415250  kBar

mulliken: Mulliken Atomic and Orbital Populations:

Species: Si                  
Atom  Qatom  Qorb
               3s      3s      3py     3pz     3px     3py     3pz     3px     
               3Pdxy   3Pdyz   3Pdz2   3Pdxz   3Pdx2-y2
   1  4.114   0.347   0.736   0.078   0.078   0.078   0.689   0.689   0.689
              0.164   0.164   0.119   0.164   0.119
   2  3.920   0.631   0.582   0.117   0.117   0.117   0.601   0.601   0.601
              0.132   0.132   0.078   0.132   0.078
   3  3.962   0.539   0.628   0.074   0.151   0.074   0.647   0.599   0.647
              0.148   0.138   0.081   0.138   0.097
   4  4.027   0.446   0.678   0.120   0.026   0.120   0.641   0.697   0.641
              0.147   0.153   0.114   0.153   0.092
   5  3.962   0.539   0.628   0.151   0.074   0.074   0.599   0.647   0.647
              0.138   0.138   0.093   0.148   0.085
   6  4.027   0.446   0.678   0.026   0.120   0.120   0.697   0.641   0.641
              0.153   0.153   0.097   0.147   0.108
   7  3.962   0.539   0.628   0.074   0.074   0.151   0.647   0.647   0.599
              0.138   0.148   0.093   0.138   0.085
   8  4.027   0.446   0.678   0.120   0.120   0.026   0.641   0.641   0.697
              0.153   0.147   0.097   0.153   0.108

mulliken: Qtot =       32.000

cgvc: No target stress found, assuming hydrostatic MD.TargetPressure.

cgvc: Target stress (kBar)
cgvc:        -0.000       0.000       0.000
cgvc:         0.000      -0.000       0.000
cgvc:         0.000       0.000      -0.000

* Maximum dynamic memory allocated =    75 MB

siesta:                 ==============================
                            Begin CG move =      1
                        ==============================

outcoor: Atomic coordinates (Ang):                          
    0.02095488    0.02095485    0.02095491   1       1  Si
    1.36875319    1.36875319    1.36875330   1       2  Si
    2.73346017    2.73346015    0.00955775   1       3  Si
    4.07824498    4.07824501    1.36691265   1       4  Si
    2.73346024    0.00955783    2.73346022   1       5  Si
    4.07824502    1.36691267    4.07824501   1       6  Si
    0.00955784    2.73346024    2.73346024   1       7  Si
    1.36691263    4.07824504    4.07824503   1       8  Si
 Kpoints in:          196 . Kpoints trimmed:          172

siesta: k-grid: Number of k-points =   172
siesta: k-grid: Cutoff (effective) =    18.344 Ang
siesta: k-grid: Supercell and displacements
siesta: k-grid:    0   7   0      0.000
siesta: k-grid:    7   0   0      0.000
siesta: k-grid:    0   0   7      0.000
Naive supercell factors:     5    5    5

superc: Internal auxiliary supercell:     5 x     5 x     5  =     125
superc: Number of atoms, orbitals, and projectors:   1000  13000  16000

outcell: Unit cell vectors (Ang):
        5.241037   -0.009435   -0.009435
       -0.009435    5.241037   -0.009435
       -0.009435   -0.009435    5.241037

outcell: Cell vector modules (Ang)   :    5.241054    5.241054    5.241054
outcell: Cell angles (23,13,12) (deg):     90.2061     90.2061     90.2061
outcell: Cell volume (Ang**3)        :    143.9618
New_DM. Step:     2
Re-using DM from previous geometry...
Re-using DM without extrapolation (not allowed)
Density Matrix sparsity pattern changed.

InitMesh: MESH =    32 x    32 x    32 =       32768
InitMesh: Mesh cutoff (required, used) =   100.000   103.033 Ry

siesta: iscf   Eharris(eV)      E_KS(eV)   FreeEng(eV)   dDmax  Ef(eV)
siesta:    1    -1028.7465    -1027.5986    -1027.5999  0.0409 -5.3374
siesta:    2    -1028.7833    -1028.7091    -1028.7095  0.0350 -5.3078
siesta:    3    -1028.7341    -1028.6155    -1028.6159  0.0072 -5.3249
siesta:    4    -1028.7337    -1028.7179    -1028.7184  0.0002 -5.3267

siesta: E_KS(eV) =            -1028.7231

siesta: Atomic forces (eV/Ang):
----------------------------------------
   Tot   -0.001953   -0.001954   -0.001946
----------------------------------------
   Max    1.735067
   Res    1.224998    sqrt( Sum f_i^2 / 3N )
----------------------------------------
   Max    1.735067    constrained

Stress-tensor-Voigt (kbar):     -192.35     -192.35     -192.35       30.69       30.69       30.69
(Free)E + p*V (eV/cell)    -1011.4401
Target enthalpy (eV/cell)    -1028.7236

siesta: Stress tensor (static) (eV/Ang**3):
        -0.120056    0.019157    0.019157
         0.019157   -0.120056    0.019157
         0.019157    0.019157   -0.120056

siesta: Pressure (static):        192.35324262  kBar

siesta: Stress tensor (total) (eV/Ang**3):
        -0.120056    0.019157    0.019157
         0.019157   -0.120056    0.019157
         0.019157    0.019157   -0.120056

siesta: Pressure (total):        192.35324262  kBar

mulliken: Mulliken Atomic and Orbital Populations:

Species: Si                  
Atom  Qatom  Qorb
               3s      3s      3py     3pz     3px     3py     3pz     3px     
               3Pdxy   3Pdyz   3Pdz2   3Pdxz   3Pdx2-y2
   1  4.081   0.408   0.700   0.102   0.102   0.102   0.663   0.663   0.663
              0.155   0.155   0.106   0.155   0.106
   2  3.950   0.628   0.582   0.139   0.139   0.139   0.592   0.592   0.592
              0.130   0.130   0.078   0.130   0.078
   3  3.973   0.546   0.622   0.101   0.164   0.101   0.630   0.590   0.630
              0.143   0.136   0.081   0.136   0.092
   4  4.017   0.475   0.660   0.131   0.054   0.131   0.629   0.676   0.629
              0.143   0.149   0.104   0.149   0.088
   5  3.973   0.546   0.622   0.164   0.101   0.101   0.590   0.630   0.630
              0.136   0.136   0.089   0.143   0.084
   6  4.017   0.475   0.660   0.054   0.131   0.131   0.676   0.629   0.629
              0.149   0.149   0.092   0.143   0.100
   7  3.973   0.546   0.622   0.101   0.101   0.164   0.630   0.630   0.590
              0.136   0.143   0.089   0.136   0.084
   8  4.017   0.475   0.660   0.131   0.131   0.054   0.629   0.629   0.676
              0.149   0.143   0.092   0.149   0.100

mulliken: Qtot =       32.000

* Maximum dynamic memory allocated =    79 MB

siesta:                 ==============================
                            Begin CG move =      2
                        ==============================

outcoor: Atomic coordinates (Ang):                          
    0.05485272    0.05485264    0.05485278   1       1  Si
    1.38281049    1.38281049    1.38281079   1       2  Si
    2.75477475    2.75477472    0.02552815   1       3  Si
    4.07475064    4.07475072    1.37868896   1       4  Si
    2.75477494    0.02552837    2.75477490   1       5  Si
    4.07475077    1.37868900    4.07475073   1       6  Si
    0.02552840    2.75477494    2.75477495   1       7  Si
    1.37868889    4.07475081    4.07475078   1       8  Si
 Kpoints in:          108 . Kpoints trimmed:          108

siesta: k-grid: Number of k-points =   108
siesta: k-grid: Cutoff (effective) =    15.920 Ang
siesta: k-grid: Supercell and displacements
siesta: k-grid:    0   6   0      0.500
siesta: k-grid:    6   0   0      0.500
siesta: k-grid:    0   0   6      0.500
Naive supercell factors:     5    5    5

superc: Internal auxiliary supercell:     5 x     5 x     5  =     125
superc: Number of atoms, orbitals, and projectors:   1000  13000  16000

outcell: Unit cell vectors (Ang):
        5.306696   -0.024531   -0.024531
       -0.024531    5.306696   -0.024531
       -0.024531   -0.024531    5.306696

outcell: Cell vector modules (Ang)   :    5.306809    5.306809    5.306809
outcell: Cell angles (23,13,12) (deg):     90.5285     90.5285     90.5285
outcell: Cell volume (Ang**3)        :    149.4323
New_DM. Step:     3
Re-using DM from previous geometry...
Re-using DM without extrapolation (not allowed)
Density Matrix sparsity pattern changed.

InitMesh: MESH =    32 x    32 x    32 =       32768
InitMesh: Mesh cutoff (required, used) =   100.000   100.510 Ry

siesta: iscf   Eharris(eV)      E_KS(eV)   FreeEng(eV)   dDmax  Ef(eV)
siesta:    1    -1029.8756    -1028.2176    -1028.2181  0.0528 -5.2819
siesta:    2    -1030.0104    -1029.7367    -1029.7367  0.0596 -5.2480
siesta:    3    -1029.8296    -1029.5372    -1029.5372  0.0160 -5.2692
siesta:    4    -1029.8287    -1029.7937    -1029.7937  0.0008 -5.2725

siesta: E_KS(eV) =            -1029.8038

siesta: Atomic forces (eV/Ang):
----------------------------------------
   Tot    0.003117    0.003120    0.003147
----------------------------------------
   Max    0.877928
   Res    0.539462    sqrt( Sum f_i^2 / 3N )
----------------------------------------
   Max    0.877928    constrained

Stress-tensor-Voigt (kbar):     -131.13     -131.13     -131.13       -0.85       -0.85       -0.85
(Free)E + p*V (eV/cell)    -1017.5734
Target enthalpy (eV/cell)    -1029.8038

siesta: Stress tensor (static) (eV/Ang**3):
        -0.081846   -0.000529   -0.000529
        -0.000529   -0.081846   -0.000529
        -0.000529   -0.000529   -0.081846

siesta: Pressure (static):        131.13270956  kBar

siesta: Stress tensor (total) (eV/Ang**3):
        -0.081846   -0.000529   -0.000529
        -0.000529   -0.081846   -0.000529
        -0.000529   -0.000529   -0.081846

siesta: Pressure (total):        131.13270956  kBar

mulliken: Mulliken Atomic and Orbital Populations:

Species: Si                  
Atom  Qatom  Qorb
               3s      3s      3py     3pz     3px     3py     3pz     3px     
               3Pdxy   3Pdyz   3Pdz2   3Pdxz   3Pdx2-y2
   1  4.019   0.498   0.645   0.133   0.133   0.133   0.622   0.622   0.622
              0.142   0.142   0.091   0.142   0.091
   2  3.975   0.620   0.582   0.166   0.166   0.166   0.578   0.578   0.578
              0.129   0.129   0.077   0.129   0.077
   3  3.994   0.563   0.612   0.141   0.173   0.141   0.605   0.585   0.605
              0.137   0.134   0.080   0.134   0.086
   4  4.008   0.520   0.634   0.156   0.112   0.156   0.603   0.630   0.603
              0.137   0.141   0.092   0.141   0.083
   5  3.994   0.563   0.612   0.173   0.141   0.141   0.585   0.605   0.605
              0.134   0.134   0.084   0.137   0.082
   6  4.008   0.520   0.634   0.112   0.156   0.156   0.630   0.603   0.603
              0.141   0.141   0.086   0.137   0.090
   7  3.994   0.563   0.612   0.141   0.141   0.173   0.605   0.605   0.585
              0.134   0.137   0.084   0.134   0.082
   8  4.008   0.520   0.634   0.156   0.156   0.112   0.603   0.603   0.630
              0.141   0.137   0.086   0.141   0.090

mulliken: Qtot =       32.000

* Maximum dynamic memory allocated =    79 MB

siesta:                 ==============================
                            Begin CG move =      3
                        ==============================

outcoor: Atomic coordinates (Ang):                          
    0.11003653    0.11003636    0.11003664   1       1  Si
    1.40543578    1.40543578    1.40543638   1       2  Si
    2.78831059    2.78831052    0.05281648   1       3  Si
    4.06740280    4.06740296    1.39936417   1       4  Si
    2.78831097    0.05281693    2.78831088   1       5  Si
    4.06740305    1.39936425    4.06740298   1       6  Si
    0.05281699    2.78831095    2.78831098   1       7  Si
    1.39936402    4.06740313    4.06740307   1       8  Si
 Kpoints in:          108 . Kpoints trimmed:          108

siesta: k-grid: Number of k-points =   108
siesta: k-grid: Cutoff (effective) =    16.237 Ang
siesta: k-grid: Supercell and displacements
siesta: k-grid:    0   6   0      0.500
siesta: k-grid:    6   0   0      0.500
siesta: k-grid:    0   0   6      0.500
Naive supercell factors:     5    5    5

superc: Internal auxiliary supercell:     5 x     5 x     5  =     125
superc: Number of atoms, orbitals, and projectors:   1000  13000  16000

outcell: Unit cell vectors (Ang):
        5.411750   -0.048685   -0.048685
       -0.048685    5.411750   -0.048685
       -0.048685   -0.048685    5.411750

outcell: Cell vector modules (Ang)   :    5.412188    5.412188    5.412188
outcell: Cell angles (23,13,12) (deg):     91.0261     91.0261     91.0261
outcell: Cell volume (Ang**3)        :    158.4554
New_DM. Step:     4
Re-using DM from previous geometry...
Re-using DM without extrapolation (not allowed)
Density Matrix sparsity pattern changed.

InitMesh: MESH =    36 x    36 x    36 =       46656
InitMesh: Mesh cutoff (required, used) =   100.000   122.361 Ry

siesta: iscf   Eharris(eV)      E_KS(eV)   FreeEng(eV)   dDmax  Ef(eV)
siesta:    1    -1030.4187    -1028.2338    -1028.2338  0.0634 -5.0935
siesta:    2    -1030.9654    -1029.8542    -1029.8542  0.0932 -5.1534
siesta:    3    -1030.2293    -1029.5807    -1029.5807  0.0290 -5.1099
siesta:    4    -1030.2277    -1030.1150    -1030.1150  0.0027 -5.1103
siesta:    5    -1030.2277    -1030.1532    -1030.1532  0.0016 -5.1105
siesta:    6    -1030.2276    -1030.2050    -1030.2050  0.0004 -5.1105

siesta: E_KS(eV) =            -1030.2136

siesta: Atomic forces (eV/Ang):
----------------------------------------
   Tot   -0.003449   -0.003447   -0.003442
----------------------------------------
   Max    1.047439
   Res    0.790586    sqrt( Sum f_i^2 / 3N )
----------------------------------------
   Max    1.047439    constrained

Stress-tensor-Voigt (kbar):      -62.85      -62.85      -62.85      -38.19      -38.19      -38.19
(Free)E + p*V (eV/cell)    -1023.9977
Target enthalpy (eV/cell)    -1030.2136

siesta: Stress tensor (static) (eV/Ang**3):
        -0.039228   -0.023836   -0.023836
        -0.023836   -0.039228   -0.023836
        -0.023836   -0.023836   -0.039228

siesta: Pressure (static):         62.85027073  kBar

siesta: Stress tensor (total) (eV/Ang**3):
        -0.039228   -0.023836   -0.023836
        -0.023836   -0.039228   -0.023836
        -0.023836   -0.023836   -0.039228

siesta: Pressure (total):         62.85027073  kBar

mulliken: Mulliken Atomic and Orbital Populations:

Species: Si                  
Atom  Qatom  Qorb
               3s      3s      3py     3pz     3px     3py     3pz     3px     
               3Pdxy   3Pdyz   3Pdz2   3Pdxz   3Pdx2-y2
   1  3.998   0.635   0.575   0.218   0.218   0.218   0.541   0.541   0.541
              0.122   0.122   0.073   0.122   0.073
   2  3.998   0.592   0.597   0.195   0.195   0.195   0.562   0.562   0.562
              0.128   0.128   0.077   0.128   0.077
   3  4.003   0.574   0.605   0.202   0.175   0.202   0.561   0.578   0.561
              0.128   0.130   0.082   0.130   0.076
   4  3.998   0.591   0.596   0.196   0.193   0.196   0.563   0.564   0.563
              0.127   0.127   0.078   0.127   0.077
   5  4.003   0.574   0.605   0.175   0.202   0.202   0.578   0.561   0.561
              0.130   0.130   0.078   0.128   0.080
   6  3.998   0.591   0.596   0.193   0.196   0.196   0.564   0.563   0.563
              0.127   0.127   0.077   0.127   0.078
   7  4.003   0.574   0.605   0.202   0.202   0.175   0.561   0.561   0.578
              0.130   0.128   0.078   0.130   0.080
   8  3.998   0.591   0.596   0.196   0.196   0.193   0.563   0.563   0.564
              0.127   0.127   0.077   0.127   0.078

mulliken: Qtot =       32.000

* Maximum dynamic memory allocated =    79 MB

siesta:                 ==============================
                            Begin CG move =      4
                        ==============================

outcoor: Atomic coordinates (Ang):                          
    0.10064204    0.10064188    0.10064214   1       1  Si
    1.40160604    1.40160604    1.40160659   1       2  Si
    2.78270013    2.78270006    0.04806152   1       3  Si
    4.06879448    4.06879462    1.39571681   1       4  Si
    2.78270048    0.04806193    2.78270040   1       5  Si
    4.06879471    1.39571688    4.06879464   1       6  Si
    0.04806198    2.78270046    2.78270049   1       7  Si
    1.39571668    4.06879478    4.06879472   1       8  Si
 Kpoints in:          108 . Kpoints trimmed:          108

siesta: k-grid: Number of k-points =   108
siesta: k-grid: Cutoff (effective) =    16.183 Ang
siesta: k-grid: Supercell and displacements
siesta: k-grid:    0   6   0      0.500
siesta: k-grid:    6   0   0      0.500
siesta: k-grid:    0   0   6      0.500
Naive supercell factors:     5    5    5

superc: Internal auxiliary supercell:     5 x     5 x     5  =     125
superc: Number of atoms, orbitals, and projectors:   1000  13000  16000

outcell: Unit cell vectors (Ang):
        5.394021   -0.044608   -0.044608
       -0.044608    5.394021   -0.044608
       -0.044608   -0.044608    5.394021

outcell: Cell vector modules (Ang)   :    5.394390    5.394390    5.394390
outcell: Cell angles (23,13,12) (deg):     90.9437     90.9437     90.9437
outcell: Cell volume (Ang**3)        :    156.9092
New_DM. Step:     5
Re-using DM from previous geometry...
Re-using DM without extrapolation (not allowed)

InitMesh: MESH =    36 x    36 x    36 =       46656
InitMesh: Mesh cutoff (required, used) =   100.000   123.158 Ry

siesta: iscf   Eharris(eV)      E_KS(eV)   FreeEng(eV)   dDmax  Ef(eV)
siesta:    1    -1030.2666    -1030.5019    -1030.5019  0.0090 -5.1416
siesta:    2    -1030.2821    -1030.2503    -1030.2503  0.0174 -5.1381
siesta:    3    -1030.2610    -1030.3225    -1030.3225  0.0048 -5.1395
siesta:    4    -1030.2610    -1030.2583    -1030.2583  0.0005 -5.1391

siesta: E_KS(eV) =            -1030.2588

siesta: Atomic forces (eV/Ang):
----------------------------------------
   Tot   -0.003693   -0.003698   -0.003687
----------------------------------------
   Max    0.807813
   Res    0.642384    sqrt( Sum f_i^2 / 3N )
----------------------------------------
   Max    0.807813    constrained

Stress-tensor-Voigt (kbar):      -71.33      -71.33      -71.33      -32.84      -32.84      -32.84
(Free)E + p*V (eV/cell)    -1023.2732
Target enthalpy (eV/cell)    -1030.2588

siesta: Stress tensor (static) (eV/Ang**3):
        -0.044520   -0.020499   -0.020499
        -0.020499   -0.044520   -0.020499
        -0.020499   -0.020499   -0.044521

siesta: Pressure (static):         71.33019081  kBar

siesta: Stress tensor (total) (eV/Ang**3):
        -0.044520   -0.020499   -0.020499
        -0.020499   -0.044520   -0.020499
        -0.020499   -0.020499   -0.044521

siesta: Pressure (total):         71.33019081  kBar

mulliken: Mulliken Atomic and Orbital Populations:

Species: Si                  
Atom  Qatom  Qorb
               3s      3s      3py     3pz     3px     3py     3pz     3px     
               3Pdxy   3Pdyz   3Pdz2   3Pdxz   3Pdx2-y2
   1  3.996   0.615   0.584   0.199   0.199   0.199   0.557   0.557   0.557
              0.126   0.126   0.075   0.126   0.075
   2  3.997   0.597   0.594   0.193   0.193   0.193   0.563   0.563   0.563
              0.128   0.128   0.077   0.128   0.077
   3  4.002   0.572   0.606   0.192   0.173   0.192   0.568   0.581   0.568
              0.129   0.131   0.081   0.131   0.078
   4  4.001   0.581   0.602   0.189   0.181   0.189   0.569   0.575   0.569
              0.129   0.130   0.080   0.130   0.078
   5  4.002   0.572   0.606   0.173   0.192   0.192   0.581   0.568   0.568
              0.131   0.131   0.079   0.129   0.081
   6  4.001   0.581   0.602   0.181   0.189   0.189   0.575   0.569   0.569
              0.130   0.130   0.079   0.129   0.079
   7  4.002   0.572   0.606   0.192   0.192   0.173   0.568   0.568   0.581
              0.131   0.129   0.079   0.131   0.081
   8  4.001   0.581   0.602   0.189   0.189   0.181   0.569   0.569   0.575
              0.130   0.129   0.079   0.130   0.079

mulliken: Qtot =       32.000

cgvc: Finished line minimization    1.  Mean atomic displacement =    0.1561

* Maximum dynamic memory allocated =    79 MB

siesta:                 ==============================
                            Begin CG move =      5
                        ==============================

outcoor: Atomic coordinates (Ang):                          
    0.07913365    0.07913330    0.07913446   1       1  Si
    1.48463233    1.48463218    1.48463230   1       2  Si
    2.81341157    2.81341149    0.08264461   1       3  Si
    4.20601235    4.20601186    1.48022786   1       4  Si
    2.81341211    0.08264466    2.81341260   1       5  Si
    4.20601233    1.48022756    4.20601239   1       6  Si
    0.08264437    2.81341213    2.81341265   1       7  Si
    1.48022758    4.20601238    4.20601245   1       8  Si
 Kpoints in:          108 . Kpoints trimmed:          108

siesta: k-grid: Number of k-points =   108
siesta: k-grid: Cutoff (effective) =    16.512 Ang
siesta: k-grid: Supercell and displacements
siesta: k-grid:    0   6   0      0.500
siesta: k-grid:    6   0   0      0.500
siesta: k-grid:    0   0   6      0.500
Naive supercell factors:     5    5    5

superc: Internal auxiliary supercell:     5 x     5 x     5  =     125
superc: Number of atoms, orbitals, and projectors:   1000  13000  16000

outcell: Unit cell vectors (Ang):
        5.504089   -0.017332   -0.017332
       -0.017332    5.504089   -0.017332
       -0.017332   -0.017332    5.504090

outcell: Cell vector modules (Ang)   :    5.504144    5.504144    5.504144
outcell: Cell angles (23,13,12) (deg):     90.3603     90.3603     90.3603
outcell: Cell volume (Ang**3)        :    166.7414
New_DM. Step:     6
Re-using DM from previous geometry...
Re-using DM without extrapolation (not allowed)
Density Matrix sparsity pattern changed.

InitMesh: MESH =    36 x    36 x    36 =       46656
InitMesh: Mesh cutoff (required, used) =   100.000   118.239 Ry

siesta: iscf   Eharris(eV)      E_KS(eV)   FreeEng(eV)   dDmax  Ef(eV)
siesta:    1    -1030.6106    -1028.7737    -1028.7737  0.0558 -4.9430
siesta:    2    -1030.6557    -1030.5503    -1030.5503  0.0474 -4.9580
siesta:    3    -1030.5875    -1030.4795    -1030.4795  0.0054 -4.9525
siesta:    4    -1030.5869    -1030.5745    -1030.5745  0.0019 -4.9536
siesta:    5    -1030.5868    -1030.5863    -1030.5863  0.0013 -4.9542
siesta:    6    -1030.5868    -1030.5835    -1030.5835  0.0003 -4.9545

siesta: E_KS(eV) =            -1030.5836

siesta: Atomic forces (eV/Ang):
----------------------------------------
   Tot    0.003786    0.003777    0.003781
----------------------------------------
   Max    0.579969
   Res    0.384589    sqrt( Sum f_i^2 / 3N )
----------------------------------------
   Max    0.579969    constrained

Stress-tensor-Voigt (kbar):       -7.58       -7.58       -7.58        4.90        4.90        4.90
(Free)E + p*V (eV/cell)    -1029.7950
Target enthalpy (eV/cell)    -1030.5836

siesta: Stress tensor (static) (eV/Ang**3):
        -0.004730    0.003057    0.003057
         0.003057   -0.004730    0.003057
         0.003057    0.003057   -0.004730

siesta: Pressure (static):          7.57830101  kBar

siesta: Stress tensor (total) (eV/Ang**3):
        -0.004730    0.003057    0.003057
         0.003057   -0.004730    0.003057
         0.003057    0.003057   -0.004730

siesta: Pressure (total):          7.57830101  kBar

mulliken: Mulliken Atomic and Orbital Populations:

Species: Si                  
Atom  Qatom  Qorb
               3s      3s      3py     3pz     3px     3py     3pz     3px     
               3Pdxy   3Pdyz   3Pdz2   3Pdxz   3Pdx2-y2
   1  3.997   0.668   0.557   0.253   0.253   0.253   0.510   0.510   0.510
              0.116   0.116   0.068   0.116   0.068
   2  4.002   0.613   0.584   0.228   0.228   0.228   0.535   0.535   0.535
              0.122   0.122   0.073   0.122   0.073
   3  4.002   0.624   0.579   0.241   0.224   0.241   0.525   0.536   0.525
              0.120   0.122   0.074   0.122   0.070
   4  3.998   0.641   0.570   0.238   0.247   0.238   0.524   0.518   0.524
              0.120   0.118   0.069   0.118   0.071
   5  4.002   0.624   0.579   0.224   0.241   0.241   0.536   0.525   0.525
              0.122   0.122   0.071   0.120   0.073
   6  3.998   0.641   0.570   0.247   0.238   0.238   0.518   0.524   0.524
              0.118   0.118   0.071   0.120   0.070
   7  4.002   0.624   0.579   0.241   0.241   0.224   0.525   0.525   0.536
              0.122   0.120   0.071   0.122   0.073
   8  3.998   0.641   0.570   0.238   0.238   0.247   0.524   0.524   0.518
              0.118   0.120   0.071   0.118   0.070

mulliken: Qtot =       32.000

* Maximum dynamic memory allocated =    84 MB

siesta:                 ==============================
                            Begin CG move =      6
                        ==============================

outcoor: Atomic coordinates (Ang):                          
    0.08310469    0.08310437    0.08310537   1       1  Si
    1.46954970    1.46954958    1.46954977   1       2  Si
    2.80804641    2.80804633    0.07648379   1       3  Si
    4.18127279    4.18127242    1.46497834   1       4  Si
    2.80804691    0.07648390    2.80804730   1       5  Si
    4.18127282    1.46497811    4.18127286   1       6  Si
    0.07648367    2.80804692    2.80804735   1       7  Si
    1.46497809    4.18127288    4.18127292   1       8  Si
 Kpoints in:          108 . Kpoints trimmed:          108

siesta: k-grid: Number of k-points =   108
siesta: k-grid: Cutoff (effective) =    16.453 Ang
siesta: k-grid: Supercell and displacements
siesta: k-grid:    0   6   0      0.500
siesta: k-grid:    6   0   0      0.500
siesta: k-grid:    0   0   6      0.500
Naive supercell factors:     5    5    5

superc: Internal auxiliary supercell:     5 x     5 x     5  =     125
superc: Number of atoms, orbitals, and projectors:   1000  13000  16000

outcell: Unit cell vectors (Ang):
        5.484327   -0.022230   -0.022229
       -0.022230    5.484326   -0.022229
       -0.022229   -0.022229    5.484327

outcell: Cell vector modules (Ang)   :    5.484417    5.484416    5.484417
outcell: Cell angles (23,13,12) (deg):     90.4635     90.4635     90.4635
outcell: Cell volume (Ang**3)        :    164.9485
New_DM. Step:     7
Re-using DM from previous geometry...
Re-using DM without extrapolation (not allowed)
Density Matrix sparsity pattern changed.

InitMesh: MESH =    36 x    36 x    36 =       46656
InitMesh: Mesh cutoff (required, used) =   100.000   119.098 Ry

siesta: iscf   Eharris(eV)      E_KS(eV)   FreeEng(eV)   dDmax  Ef(eV)
siesta:    1    -1030.6096    -1030.8797    -1030.8797  0.0349 -5.0079
siesta:    2    -1030.6110    -1030.6075    -1030.6075  0.0085 -5.0064
siesta:    3    -1030.6088    -1030.6124    -1030.6124  0.0013 -5.0064
siesta:    4    -1030.6088    -1030.6084    -1030.6084  0.0004 -5.0062

siesta: E_KS(eV) =            -1030.6075

siesta: Atomic forces (eV/Ang):
----------------------------------------
   Tot    0.012791    0.012797    0.012802
----------------------------------------
   Max    0.457788
   Res    0.272434    sqrt( Sum f_i^2 / 3N )
----------------------------------------
   Max    0.457788    constrained

Stress-tensor-Voigt (kbar):      -16.87      -16.87      -16.87       -0.18       -0.18       -0.18
(Free)E + p*V (eV/cell)    -1028.8707
Target enthalpy (eV/cell)    -1030.6075

siesta: Stress tensor (static) (eV/Ang**3):
        -0.010529   -0.000113   -0.000113
        -0.000113   -0.010529   -0.000112
        -0.000113   -0.000112   -0.010529

siesta: Pressure (static):         16.86985351  kBar

siesta: Stress tensor (total) (eV/Ang**3):
        -0.010529   -0.000113   -0.000113
        -0.000113   -0.010529   -0.000112
        -0.000113   -0.000112   -0.010529

siesta: Pressure (total):         16.86985351  kBar

mulliken: Mulliken Atomic and Orbital Populations:

Species: Si                  
Atom  Qatom  Qorb
               3s      3s      3py     3pz     3px     3py     3pz     3px     
               3Pdxy   3Pdyz   3Pdz2   3Pdxz   3Pdx2-y2
   1  3.997   0.658   0.563   0.245   0.245   0.245   0.517   0.517   0.517
              0.118   0.118   0.069   0.118   0.069
   2  4.002   0.611   0.586   0.223   0.223   0.223   0.539   0.539   0.539
              0.123   0.123   0.074   0.123   0.074
   3  4.003   0.615   0.584   0.232   0.217   0.232   0.533   0.542   0.533
              0.121   0.123   0.075   0.123   0.072
   4  3.998   0.631   0.575   0.229   0.236   0.229   0.532   0.527   0.532
              0.121   0.120   0.071   0.120   0.072
   5  4.003   0.615   0.584   0.217   0.232   0.232   0.542   0.533   0.533
              0.123   0.123   0.072   0.121   0.074
   6  3.998   0.631   0.575   0.236   0.229   0.229   0.527   0.532   0.532
              0.120   0.120   0.072   0.121   0.071
   7  4.003   0.615   0.584   0.232   0.232   0.217   0.533   0.533   0.542
              0.123   0.121   0.072   0.123   0.074
   8  3.998   0.631   0.575   0.229   0.229   0.236   0.532   0.532   0.527
              0.120   0.121   0.072   0.120   0.071

mulliken: Qtot =       32.000

cgvc: Finished line minimization    2.  Mean atomic displacement =    0.1281

* Maximum dynamic memory allocated =    84 MB

siesta:                 ==============================
                            Begin CG move =      7
                        ==============================

outcoor: Atomic coordinates (Ang):                          
    0.08570932    0.08570994    0.08571011   1       1  Si
    1.46360226    1.46360237    1.46360375   1       2  Si
    2.88289137    2.88289113    0.09991841   1       3  Si
    4.27560006    4.27560020    1.45227732   1       4  Si
    2.88289111    0.09991922    2.88288979   1       5  Si
    4.27559916    1.45227670    4.27560111   1       6  Si
    0.09991977    2.88289099    2.88289040   1       7  Si
    1.45227670    4.27559886    4.27560075   1       8  Si
 Kpoints in:          108 . Kpoints trimmed:          108

siesta: k-grid: Number of k-points =   108
siesta: k-grid: Cutoff (effective) =    16.713 Ang
siesta: k-grid: Supercell and displacements
siesta: k-grid:    0   6   0      0.500
siesta: k-grid:    6   0   0      0.500
siesta: k-grid:    0   0   6      0.500
Naive supercell factors:     5    5    5

superc: Internal auxiliary supercell:     5 x     5 x     5  =     125
superc: Number of atoms, orbitals, and projectors:   1000  13000  16000

outcell: Unit cell vectors (Ang):
        5.570816   -0.010642   -0.010643
       -0.010642    5.570815   -0.010643
       -0.010643   -0.010643    5.570816

outcell: Cell vector modules (Ang)   :    5.570836    5.570836    5.570836
outcell: Cell angles (23,13,12) (deg):     90.2187     90.2187     90.2187
outcell: Cell volume (Ang**3)        :    172.8827
New_DM. Step:     8
Re-using DM from previous geometry...
Re-using DM without extrapolation (not allowed)
Density Matrix sparsity pattern changed.

InitMesh: MESH =    36 x    36 x    36 =       46656
InitMesh: Mesh cutoff (required, used) =   100.000   115.419 Ry

siesta: iscf   Eharris(eV)      E_KS(eV)   FreeEng(eV)   dDmax  Ef(eV)
siesta:    1    -1030.6783    -1029.3214    -1029.3214  0.0395 -4.9307
siesta:    2    -1030.9330    -1030.4408    -1030.4408  0.0945 -4.9569
siesta:    3    -1030.5999    -1030.1813    -1030.1813  0.0163 -4.9485
siesta:    4    -1030.5997    -1030.5483    -1030.5483  0.0027 -4.9522
siesta:    5    -1030.5997    -1030.5665    -1030.5665  0.0015 -4.9516
siesta:    6    -1030.5997    -1030.5876    -1030.5876  0.0004 -4.9509

siesta: E_KS(eV) =            -1030.5925

siesta: Atomic forces (eV/Ang):
----------------------------------------
   Tot   -0.012621   -0.012594   -0.012587
----------------------------------------
   Max    0.500984
   Res    0.246321    sqrt( Sum f_i^2 / 3N )
----------------------------------------
   Max    0.500984    constrained

Stress-tensor-Voigt (kbar):       22.25       22.25       22.25       -6.06       -6.06       -6.06
(Free)E + p*V (eV/cell)    -1032.9929
Target enthalpy (eV/cell)    -1030.5925

siesta: Stress tensor (static) (eV/Ang**3):
         0.013884   -0.003782   -0.003783
        -0.003782    0.013884   -0.003782
        -0.003783   -0.003782    0.013885

siesta: Pressure (static):        -22.24557906  kBar

siesta: Stress tensor (total) (eV/Ang**3):
         0.013884   -0.003782   -0.003783
        -0.003782    0.013884   -0.003782
        -0.003783   -0.003782    0.013885

siesta: Pressure (total):        -22.24557906  kBar

mulliken: Mulliken Atomic and Orbital Populations:

Species: Si                  
Atom  Qatom  Qorb
               3s      3s      3py     3pz     3px     3py     3pz     3px     
               3Pdxy   3Pdyz   3Pdz2   3Pdxz   3Pdx2-y2
   1  4.002   0.623   0.581   0.250   0.250   0.250   0.517   0.517   0.517
              0.119   0.119   0.071   0.119   0.071
   2  4.001   0.667   0.559   0.268   0.268   0.268   0.499   0.499   0.499
              0.114   0.114   0.066   0.114   0.066
   3  4.000   0.675   0.554   0.267   0.286   0.267   0.498   0.485   0.498
              0.115   0.112   0.064   0.112   0.067
   4  3.999   0.662   0.561   0.264   0.261   0.264   0.502   0.504   0.502
              0.115   0.115   0.067   0.115   0.067
   5  4.000   0.675   0.554   0.286   0.267   0.267   0.485   0.498   0.498
              0.112   0.112   0.066   0.115   0.065
   6  3.999   0.662   0.561   0.261   0.264   0.264   0.504   0.502   0.502
              0.115   0.115   0.067   0.115   0.067
   7  4.000   0.675   0.554   0.267   0.267   0.286   0.498   0.498   0.485
              0.112   0.115   0.066   0.112   0.065
   8  3.999   0.662   0.561   0.264   0.264   0.261   0.502   0.502   0.504
              0.115   0.115   0.067   0.115   0.067

mulliken: Qtot =       32.000

* Maximum dynamic memory allocated =    84 MB

siesta:                 ==============================
                            Begin CG move =      8
                        ==============================

outcoor: Atomic coordinates (Ang):                          
    0.08435686    0.08435700    0.08435759   1       1  Si
    1.46685553    1.46685552    1.46685628   1       2  Si
    2.84404784    2.84404768    0.08772704   1       3  Si
    4.22674469    4.22674457    1.45904298   1       4  Si
    2.84404798    0.08772749    2.84404755   1       5  Si
    4.22674428    1.45904257    4.22674523   1       6  Si
    0.08772763    2.84404792    2.84404786   1       7  Si
    1.45904256    4.22674416    4.22674509   1       8  Si
 Kpoints in:          108 . Kpoints trimmed:          108

siesta: k-grid: Number of k-points =   108
siesta: k-grid: Cutoff (effective) =    16.578 Ang
siesta: k-grid: Supercell and displacements
siesta: k-grid:    0   6   0      0.500
siesta: k-grid:    6   0   0      0.500
siesta: k-grid:    0   0   6      0.500
Naive supercell factors:     5    5    5

superc: Internal auxiliary supercell:     5 x     5 x     5  =     125
superc: Number of atoms, orbitals, and projectors:   1000  13000  16000

outcell: Unit cell vectors (Ang):
        5.526058   -0.016638   -0.016639
       -0.016638    5.526058   -0.016639
       -0.016639   -0.016639    5.526059

outcell: Cell vector modules (Ang)   :    5.526108    5.526108    5.526109
outcell: Cell angles (23,13,12) (deg):     90.3445     90.3445     90.3445
outcell: Cell volume (Ang**3)        :    168.7464
New_DM. Step:     9
Re-using DM from previous geometry...
Re-using DM without extrapolation (not allowed)
Density Matrix sparsity pattern changed.

InitMesh: MESH =    36 x    36 x    36 =       46656
InitMesh: Mesh cutoff (required, used) =   100.000   117.300 Ry

siesta: iscf   Eharris(eV)      E_KS(eV)   FreeEng(eV)   dDmax  Ef(eV)
siesta:    1    -1030.6875    -1031.2409    -1031.2409  0.0195 -4.9941
siesta:    2    -1030.7478    -1030.6292    -1030.6292  0.0433 -4.9884
siesta:    3    -1030.6682    -1030.8143    -1030.8143  0.0086 -4.9853
siesta:    4    -1030.6681    -1030.6596    -1030.6596  0.0011 -4.9831
siesta:    5    -1030.6681    -1030.6608    -1030.6608  0.0007 -4.9832

siesta: E_KS(eV) =            -1030.6663

siesta: Atomic forces (eV/Ang):
----------------------------------------
   Tot    0.004154    0.004163    0.004137
----------------------------------------
   Max    0.086030
   Res    0.060159    sqrt( Sum f_i^2 / 3N )
----------------------------------------
   Max    0.086030    constrained

Stress-tensor-Voigt (kbar):        3.21        3.21        3.21       -3.22       -3.22       -3.22
(Free)E + p*V (eV/cell)    -1031.0048
Target enthalpy (eV/cell)    -1030.6663

siesta: Stress tensor (static) (eV/Ang**3):
         0.002007   -0.002009   -0.002009
        -0.002009    0.002006   -0.002009
        -0.002009   -0.002009    0.002007

siesta: Pressure (static):         -3.21480079  kBar

siesta: Stress tensor (total) (eV/Ang**3):
         0.002007   -0.002009   -0.002009
        -0.002009    0.002006   -0.002009
        -0.002009   -0.002009    0.002007

siesta: Pressure (total):         -3.21480079  kBar

mulliken: Mulliken Atomic and Orbital Populations:

Species: Si                  
Atom  Qatom  Qorb
               3s      3s      3py     3pz     3px     3py     3pz     3px     
               3Pdxy   3Pdyz   3Pdz2   3Pdxz   3Pdx2-y2
   1  4.000   0.643   0.570   0.247   0.247   0.247   0.518   0.518   0.518
              0.118   0.118   0.070   0.118   0.070
   2  4.000   0.636   0.573   0.245   0.245   0.245   0.520   0.520   0.520
              0.119   0.119   0.070   0.119   0.070
   3  4.000   0.645   0.569   0.246   0.246   0.246   0.518   0.518   0.518
              0.118   0.118   0.069   0.118   0.069
   4  4.000   0.646   0.569   0.248   0.250   0.248   0.517   0.515   0.517
              0.118   0.118   0.069   0.118   0.069
   5  4.000   0.645   0.569   0.246   0.246   0.246   0.518   0.518   0.518
              0.118   0.118   0.069   0.118   0.069
   6  4.000   0.646   0.569   0.250   0.248   0.248   0.515   0.517   0.517
              0.118   0.118   0.069   0.118   0.069
   7  4.000   0.645   0.569   0.246   0.246   0.246   0.518   0.518   0.518
              0.118   0.118   0.069   0.118   0.069
   8  4.000   0.646   0.569   0.248   0.248   0.250   0.517   0.517   0.515
              0.118   0.118   0.069   0.118   0.069

mulliken: Qtot =       32.000

cgvc: Finished line minimization    3.  Mean atomic displacement =    0.0618

* Maximum dynamic memory allocated =    84 MB

siesta:                 ==============================
                            Begin CG move =      9
                        ==============================

outcoor: Atomic coordinates (Ang):                          
    0.10241662    0.10241630    0.10241484   1       1  Si
    1.45335467    1.45335485    1.45335114   1       2  Si
    2.86518354    2.86518433    0.08070977   1       3  Si
    4.22004595    4.22004540    1.48705456   1       4  Si
    2.86518437    0.08070750    2.86518995   1       5  Si
    4.22004831    1.48705806    4.22004386   1       6  Si
    0.08070697    2.86518522    2.86518994   1       7  Si
    1.48705732    4.22005012    4.22004555   1       8  Si
 Kpoints in:          108 . Kpoints trimmed:          108

siesta: k-grid: Number of k-points =   108
siesta: k-grid: Cutoff (effective) =    16.520 Ang
siesta: k-grid: Supercell and displacements
siesta: k-grid:    6   0   0      0.500
siesta: k-grid:    0   6   0      0.500
siesta: k-grid:    0   0   6      0.500
Naive supercell factors:     5    5    5

superc: Internal auxiliary supercell:     5 x     5 x     5  =     125
superc: Number of atoms, orbitals, and projectors:   1000  13000  16000

outcell: Unit cell vectors (Ang):
        5.506604    0.001569    0.001571
        0.001569    5.506604    0.001571
        0.001571    0.001571    5.506605

outcell: Cell vector modules (Ang)   :    5.506605    5.506605    5.506605
outcell: Cell angles (23,13,12) (deg):     89.9673     89.9673     89.9673
outcell: Cell volume (Ang**3)        :    166.9750
New_DM. Step:    10
Re-using DM from previous geometry...
Re-using DM without extrapolation (not allowed)
Density Matrix sparsity pattern changed.

InitMesh: MESH =    36 x    36 x    36 =       46656
InitMesh: Mesh cutoff (required, used) =   100.000   118.124 Ry

siesta: iscf   Eharris(eV)      E_KS(eV)   FreeEng(eV)   dDmax  Ef(eV)
siesta:    1    -1030.6442    -1030.9109    -1030.9109  0.0310 -5.0085
siesta:    2    -1030.6826    -1030.6026    -1030.6026  0.0334 -5.0193
siesta:    3    -1030.6298    -1030.6696    -1030.6696  0.0060 -5.0091
siesta:    4    -1030.6296    -1030.6188    -1030.6188  0.0005 -5.0081

siesta: E_KS(eV) =            -1030.6219

siesta: Atomic forces (eV/Ang):
----------------------------------------
   Tot    0.002056    0.002057    0.002044
----------------------------------------
   Max    0.410291
   Res    0.270450    sqrt( Sum f_i^2 / 3N )
----------------------------------------
   Max    0.410291    constrained

Stress-tensor-Voigt (kbar):       -6.49       -6.49       -6.49       -3.16       -3.16       -3.16
(Free)E + p*V (eV/cell)    -1029.9455
Target enthalpy (eV/cell)    -1030.6219

siesta: Stress tensor (static) (eV/Ang**3):
        -0.004051   -0.001975   -0.001973
        -0.001975   -0.004051   -0.001973
        -0.001973   -0.001973   -0.004051

siesta: Pressure (static):          6.49014323  kBar

siesta: Stress tensor (total) (eV/Ang**3):
        -0.004051   -0.001975   -0.001973
        -0.001975   -0.004051   -0.001973
        -0.001973   -0.001973   -0.004051

siesta: Pressure (total):          6.49014323  kBar

mulliken: Mulliken Atomic and Orbital Populations:

Species: Si                  
Atom  Qatom  Qorb
               3s      3s      3py     3pz     3px     3py     3pz     3px     
               3Pdxy   3Pdyz   3Pdz2   3Pdxz   3Pdx2-y2
   1  4.001   0.638   0.572   0.242   0.242   0.242   0.522   0.522   0.522
              0.119   0.119   0.070   0.119   0.070
   2  4.001   0.659   0.562   0.251   0.251   0.251   0.513   0.513   0.513
              0.117   0.117   0.068   0.117   0.068
   3  3.999   0.634   0.574   0.239   0.237   0.239   0.525   0.526   0.525
              0.120   0.120   0.071   0.120   0.071
   4  4.001   0.628   0.577   0.241   0.229   0.241   0.525   0.532   0.525
              0.120   0.121   0.073   0.121   0.070
   5  3.999   0.634   0.574   0.237   0.239   0.239   0.526   0.525   0.525
              0.120   0.120   0.071   0.120   0.071
   6  4.001   0.628   0.577   0.229   0.241   0.241   0.532   0.525   0.525
              0.121   0.121   0.071   0.120   0.072
   7  3.999   0.634   0.574   0.239   0.239   0.237   0.525   0.525   0.526
              0.120   0.120   0.071   0.120   0.071
   8  4.001   0.628   0.577   0.241   0.241   0.229   0.525   0.525   0.532
              0.121   0.120   0.071   0.121   0.072

mulliken: Qtot =       32.000

* Maximum dynamic memory allocated =    84 MB

siesta:                 ==============================
                            Begin CG move =     10
                        ==============================

outcoor: Atomic coordinates (Ang):                          
    0.08837600    0.08837603    0.08837617   1       1  Si
    1.46385348    1.46385351    1.46385327   1       2  Si
    2.84877806    2.84877812    0.08612153   1       3  Si
    4.22524695    4.22524673    1.46530701   1       4  Si
    2.84877835    0.08612136    2.84877927   1       5  Si
    4.22524715    1.46530748    4.22524689   1       6  Si
    0.08612135    2.84877850    2.84877952   1       7  Si
    1.46530730    4.22524747    4.22524716   1       8  Si
 Kpoints in:          108 . Kpoints trimmed:          108

siesta: k-grid: Number of k-points =   108
siesta: k-grid: Cutoff (effective) =    16.565 Ang
siesta: k-grid: Supercell and displacements
siesta: k-grid:    0   6   0      0.500
siesta: k-grid:    6   0   0      0.500
siesta: k-grid:    0   0   6      0.500
Naive supercell factors:     5    5    5

superc: Internal auxiliary supercell:     5 x     5 x     5  =     125
superc: Number of atoms, orbitals, and projectors:   1000  13000  16000

outcell: Unit cell vectors (Ang):
        5.521719   -0.012577   -0.012577
       -0.012577    5.521718   -0.012577
       -0.012577   -0.012577    5.521719

outcell: Cell vector modules (Ang)   :    5.521747    5.521747    5.521748
outcell: Cell angles (23,13,12) (deg):     90.2607     90.2607     90.2607
outcell: Cell volume (Ang**3)        :    168.3511
New_DM. Step:    11
Re-using DM from previous geometry...
Re-using DM without extrapolation (not allowed)
Density Matrix sparsity pattern changed.

InitMesh: MESH =    36 x    36 x    36 =       46656
InitMesh: Mesh cutoff (required, used) =   100.000   117.482 Ry

siesta: iscf   Eharris(eV)      E_KS(eV)   FreeEng(eV)   dDmax  Ef(eV)
siesta:    1    -1030.6812    -1030.4260    -1030.4260  0.0145 -5.0014
siesta:    2    -1030.7036    -1030.6562    -1030.6562  0.0272 -4.9981
siesta:    3    -1030.6724    -1030.6038    -1030.6038  0.0050 -4.9936
siesta:    4    -1030.6724    -1030.6696    -1030.6696  0.0004 -4.9941

siesta: E_KS(eV) =            -1030.6705

siesta: Atomic forces (eV/Ang):
----------------------------------------
   Tot    0.005687    0.005690    0.005675
----------------------------------------
   Max    0.045552
   Res    0.022199    sqrt( Sum f_i^2 / 3N )
----------------------------------------
   Max    0.045552    constrained

Stress-tensor-Voigt (kbar):        0.68        0.68        0.68       -3.14       -3.14       -3.14
(Free)E + p*V (eV/cell)    -1030.7415
Target enthalpy (eV/cell)    -1030.6705

siesta: Stress tensor (static) (eV/Ang**3):
         0.000421   -0.001959   -0.001959
        -0.001959    0.000421   -0.001959
        -0.001959   -0.001959    0.000421

siesta: Pressure (static):         -0.67526874  kBar

siesta: Stress tensor (total) (eV/Ang**3):
         0.000421   -0.001959   -0.001959
        -0.001959    0.000421   -0.001959
        -0.001959   -0.001959    0.000421

siesta: Pressure (total):         -0.67526874  kBar

mulliken: Mulliken Atomic and Orbital Populations:

Species: Si                  
Atom  Qatom  Qorb
               3s      3s      3py     3pz     3px     3py     3pz     3px     
               3Pdxy   3Pdyz   3Pdz2   3Pdxz   3Pdx2-y2
   1  4.000   0.643   0.570   0.245   0.245   0.245   0.519   0.519   0.519
              0.118   0.118   0.070   0.118   0.070
   2  4.000   0.643   0.570   0.246   0.246   0.246   0.518   0.518   0.518
              0.118   0.118   0.070   0.118   0.070
   3  4.000   0.643   0.570   0.245   0.244   0.245   0.520   0.520   0.520
              0.118   0.118   0.070   0.118   0.070
   4  4.000   0.642   0.570   0.246   0.246   0.246   0.518   0.519   0.518
              0.118   0.118   0.070   0.118   0.070
   5  4.000   0.643   0.570   0.244   0.245   0.245   0.520   0.520   0.520
              0.118   0.118   0.070   0.118   0.070
   6  4.000   0.642   0.570   0.246   0.246   0.246   0.519   0.518   0.518
              0.118   0.118   0.070   0.118   0.070
   7  4.000   0.643   0.570   0.245   0.245   0.244   0.520   0.520   0.520
              0.118   0.118   0.070   0.118   0.070
   8  4.000   0.642   0.570   0.246   0.246   0.246   0.518   0.518   0.519
              0.118   0.118   0.070   0.118   0.070

mulliken: Qtot =       32.000

cgvc: Finished line minimization    4.  Mean atomic displacement =    0.0138

* Maximum dynamic memory allocated =    84 MB

siesta:                 ==============================
                            Begin CG move =     11
                        ==============================

outcoor: Atomic coordinates (Ang):                          
    0.08923998    0.08924116    0.08923935   1       1  Si
    1.47170764    1.47170773    1.47170857   1       2  Si
    2.85292650    2.85292664    0.09433520   1       3  Si
    4.23294895    4.23294903    1.47709631   1       4  Si
    2.85292701    0.09433721    2.85292598   1       5  Si
    4.23294808    1.47709606    4.23294887   1       6  Si
    0.09433738    2.85292744    2.85292632   1       7  Si
    1.47709612    4.23294855    4.23294886   1       8  Si
 Kpoints in:          108 . Kpoints trimmed:          108

siesta: k-grid: Number of k-points =   108
siesta: k-grid: Cutoff (effective) =    16.552 Ang
siesta: k-grid: Supercell and displacements
siesta: k-grid:    6   0   0      0.500
siesta: k-grid:    0   6   0      0.500
siesta: k-grid:    0   0   6      0.500
Naive supercell factors:     5    5    5

superc: Internal auxiliary supercell:     5 x     5 x     5  =     125
superc: Number of atoms, orbitals, and projectors:   1000  13000  16000

outcell: Unit cell vectors (Ang):
        5.517409   -0.002213   -0.002214
       -0.002213    5.517409   -0.002214
       -0.002214   -0.002214    5.517409

outcell: Cell vector modules (Ang)   :    5.517410    5.517410    5.517410
outcell: Cell angles (23,13,12) (deg):     90.0460     90.0460     90.0460
outcell: Cell volume (Ang**3)        :    167.9598
New_DM. Step:    12
Re-using DM from previous geometry...
Re-using DM without extrapolation (not allowed)
Density Matrix sparsity pattern changed.

InitMesh: MESH =    36 x    36 x    36 =       46656
InitMesh: Mesh cutoff (required, used) =   100.000   117.662 Ry

siesta: iscf   Eharris(eV)      E_KS(eV)   FreeEng(eV)   dDmax  Ef(eV)
siesta:    1    -1030.6742    -1030.7302    -1030.7302  0.0024 -4.9987
siesta:    2    -1030.6744    -1030.6740    -1030.6740  0.0026 -4.9978
siesta:    3    -1030.6741    -1030.6761    -1030.6761  0.0003 -4.9978

siesta: E_KS(eV) =            -1030.6741

siesta: Atomic forces (eV/Ang):
----------------------------------------
   Tot    0.001216    0.001217    0.001238
----------------------------------------
   Max    0.056781
   Res    0.035448    sqrt( Sum f_i^2 / 3N )
----------------------------------------
   Max    0.056781    constrained

Stress-tensor-Voigt (kbar):       -0.97       -0.97       -0.97        0.58        0.58        0.58
(Free)E + p*V (eV/cell)    -1030.5725
Target enthalpy (eV/cell)    -1030.6741

siesta: Stress tensor (static) (eV/Ang**3):
        -0.000605    0.000365    0.000365
         0.000365   -0.000605    0.000365
         0.000365    0.000365   -0.000605

siesta: Pressure (static):          0.96872509  kBar

siesta: Stress tensor (total) (eV/Ang**3):
        -0.000605    0.000365    0.000365
         0.000365   -0.000605    0.000365
         0.000365    0.000365   -0.000605

siesta: Pressure (total):          0.96872509  kBar

mulliken: Mulliken Atomic and Orbital Populations:

Species: Si                  
Atom  Qatom  Qorb
               3s      3s      3py     3pz     3px     3py     3pz     3px     
               3Pdxy   3Pdyz   3Pdz2   3Pdxz   3Pdx2-y2
   1  4.001   0.641   0.571   0.244   0.244   0.244   0.521   0.521   0.521
              0.119   0.119   0.070   0.119   0.070
   2  4.000   0.642   0.570   0.246   0.246   0.246   0.518   0.518   0.518
              0.118   0.118   0.070   0.118   0.070
   3  4.000   0.641   0.571   0.243   0.243   0.243   0.521   0.521   0.521
              0.119   0.119   0.070   0.119   0.070
   4  4.000   0.639   0.571   0.245   0.243   0.245   0.519   0.521   0.519
              0.119   0.119   0.070   0.119   0.070
   5  4.000   0.641   0.571   0.243   0.243   0.243   0.521   0.521   0.521
              0.119   0.119   0.070   0.119   0.070
   6  4.000   0.639   0.571   0.243   0.245   0.245   0.521   0.519   0.519
              0.119   0.119   0.070   0.119   0.070
   7  4.000   0.641   0.571   0.243   0.243   0.243   0.521   0.521   0.521
              0.119   0.119   0.070   0.119   0.070
   8  4.000   0.639   0.571   0.245   0.245   0.243   0.519   0.519   0.521
              0.119   0.119   0.070   0.119   0.070

mulliken: Qtot =       32.000

* Maximum dynamic memory allocated =    84 MB

siesta:                 ==============================
                            Begin CG move =     12
                        ==============================

outcoor: Atomic coordinates (Ang):                          
    0.08905295    0.08905389    0.08905249   1       1  Si
    1.47000842    1.47000850    1.47000911   1       2  Si
    2.85203055    2.85203066    0.09255918   1       3  Si
    4.23128526    4.23128528    1.47454781   1       4  Si
    2.85203101    0.09256073    2.85203040   1       5  Si
    4.23128463    1.47454772    4.23128519   1       6  Si
    0.09256086    2.85203138    2.85203072   1       7  Si
    1.47454772    4.23128507    4.23128524   1       8  Si
 Kpoints in:          108 . Kpoints trimmed:          108

siesta: k-grid: Number of k-points =   108
siesta: k-grid: Cutoff (effective) =    16.555 Ang
siesta: k-grid: Supercell and displacements
siesta: k-grid:    0   6   0      0.500
siesta: k-grid:    6   0   0      0.500
siesta: k-grid:    0   0   6      0.500
Naive supercell factors:     5    5    5

superc: Internal auxiliary supercell:     5 x     5 x     5  =     125
superc: Number of atoms, orbitals, and projectors:   1000  13000  16000

outcell: Unit cell vectors (Ang):
        5.518340   -0.004453   -0.004453
       -0.004453    5.518340   -0.004453
       -0.004453   -0.004453    5.518341

outcell: Cell vector modules (Ang)   :    5.518344    5.518344    5.518344
outcell: Cell angles (23,13,12) (deg):     90.0924     90.0924     90.0924
outcell: Cell volume (Ang**3)        :    168.0446
New_DM. Step:    13
Re-using DM from previous geometry...
Re-using DM without extrapolation (not allowed)
Density Matrix sparsity pattern changed.

InitMesh: MESH =    36 x    36 x    36 =       46656
InitMesh: Mesh cutoff (required, used) =   100.000   117.623 Ry

siesta: iscf   Eharris(eV)      E_KS(eV)   FreeEng(eV)   dDmax  Ef(eV)
siesta:    1    -1030.6742    -1030.6612    -1030.6612  0.0005 -4.9906

siesta: E_KS(eV) =            -1030.6742

siesta: Atomic forces (eV/Ang):
----------------------------------------
   Tot    0.002025    0.002025    0.002020
----------------------------------------
   Max    0.048255
   Res    0.029850    sqrt( Sum f_i^2 / 3N )
----------------------------------------
   Max    0.048255    constrained

Stress-tensor-Voigt (kbar):       -0.64       -0.64       -0.64       -0.24       -0.24       -0.24
(Free)E + p*V (eV/cell)    -1030.6068
Target enthalpy (eV/cell)    -1030.6742

siesta: Stress tensor (static) (eV/Ang**3):
        -0.000401   -0.000148   -0.000149
        -0.000148   -0.000401   -0.000149
        -0.000149   -0.000149   -0.000401

siesta: Pressure (static):          0.64258508  kBar

siesta: Stress tensor (total) (eV/Ang**3):
        -0.000401   -0.000148   -0.000149
        -0.000148   -0.000401   -0.000149
        -0.000149   -0.000149   -0.000401

siesta: Pressure (total):          0.64258508  kBar

mulliken: Mulliken Atomic and Orbital Populations:

Species: Si                  
Atom  Qatom  Qorb
               3s      3s      3py     3pz     3px     3py     3pz     3px     
               3Pdxy   3Pdyz   3Pdz2   3Pdxz   3Pdx2-y2
   1  4.001   0.641   0.571   0.244   0.244   0.244   0.520   0.520   0.520
              0.119   0.119   0.070   0.119   0.070
   2  3.999   0.642   0.570   0.246   0.246   0.246   0.518   0.518   0.518
              0.118   0.118   0.070   0.118   0.070
   3  4.000   0.641   0.571   0.243   0.243   0.243   0.521   0.521   0.521
              0.119   0.119   0.070   0.119   0.070
   4  4.001   0.640   0.571   0.245   0.244   0.245   0.519   0.520   0.519
              0.119   0.119   0.070   0.119   0.070
   5  4.000   0.641   0.571   0.243   0.243   0.243   0.521   0.521   0.521
              0.119   0.119   0.070   0.119   0.070
   6  4.001   0.640   0.571   0.244   0.245   0.245   0.520   0.519   0.519
              0.119   0.119   0.070   0.119   0.070
   7  4.000   0.641   0.571   0.243   0.243   0.243   0.521   0.521   0.521
              0.119   0.119   0.070   0.119   0.070
   8  4.001   0.640   0.571   0.245   0.245   0.244   0.519   0.519   0.520
              0.119   0.119   0.070   0.119   0.070

mulliken: Qtot =       32.000

cgvc: Finished line minimization    5.  Mean atomic displacement =    0.0108

* Maximum dynamic memory allocated =    84 MB

siesta:                 ==============================
                            Begin CG move =     13
                        ==============================

outcoor: Atomic coordinates (Ang):                          
    0.09332617    0.09332709    0.09332654   1       1  Si
    1.47407648    1.47407677    1.47407629   1       2  Si
    2.85569647    2.85569669    0.10095096   1       3  Si
    4.23499945    4.23499946    1.47909543   1       4  Si
    2.85569664    0.10095213    2.85569632   1       5  Si
    4.23499906    1.47909549    4.23499872   1       6  Si
    0.10095227    2.85569704    2.85569658   1       7  Si
    1.47909539    4.23499985    4.23499906   1       8  Si
 Kpoints in:          108 . Kpoints trimmed:          108

siesta: k-grid: Number of k-points =   108
siesta: k-grid: Cutoff (effective) =    16.550 Ang
siesta: k-grid: Supercell and displacements
siesta: k-grid:    6   0   0      0.500
siesta: k-grid:    0   6   0      0.500
siesta: k-grid:    0   0   6      0.500
Naive supercell factors:     5    5    5

superc: Internal auxiliary supercell:     5 x     5 x     5  =     125
superc: Number of atoms, orbitals, and projectors:   1000  13000  16000

outcell: Unit cell vectors (Ang):
        5.516791    0.001954    0.001954
        0.001954    5.516791    0.001954
        0.001954    0.001954    5.516791

outcell: Cell vector modules (Ang)   :    5.516792    5.516792    5.516792
outcell: Cell angles (23,13,12) (deg):     89.9594     89.9594     89.9594
outcell: Cell volume (Ang**3)        :    167.9034
New_DM. Step:    14
Re-using DM from previous geometry...
Re-using DM without extrapolation (not allowed)
Density Matrix sparsity pattern changed.

InitMesh: MESH =    36 x    36 x    36 =       46656
InitMesh: Mesh cutoff (required, used) =   100.000   117.688 Ry

siesta: iscf   Eharris(eV)      E_KS(eV)   FreeEng(eV)   dDmax  Ef(eV)
siesta:    1    -1030.6748    -1030.6954    -1030.6954  0.0015 -5.0031
siesta:    2    -1030.6749    -1030.6747    -1030.6747  0.0014 -5.0027
siesta:    3    -1030.6747    -1030.6754    -1030.6754  0.0002 -5.0028

siesta: E_KS(eV) =            -1030.6747

siesta: Atomic forces (eV/Ang):
----------------------------------------
   Tot   -0.004001   -0.004009   -0.003977
----------------------------------------
   Max    0.017263
   Res    0.009704    sqrt( Sum f_i^2 / 3N )
----------------------------------------
   Max    0.017263    constrained

Stress-tensor-Voigt (kbar):       -1.09       -1.09       -1.09        0.61        0.61        0.61
(Free)E + p*V (eV/cell)    -1030.5607
Target enthalpy (eV/cell)    -1030.6747

siesta: Stress tensor (static) (eV/Ang**3):
        -0.000679    0.000382    0.000382
         0.000382   -0.000679    0.000382
         0.000382    0.000382   -0.000679

siesta: Pressure (static):          1.08793943  kBar

siesta: Stress tensor (total) (eV/Ang**3):
        -0.000679    0.000382    0.000382
         0.000382   -0.000679    0.000382
         0.000382    0.000382   -0.000679

siesta: Pressure (total):          1.08793943  kBar

mulliken: Mulliken Atomic and Orbital Populations:

Species: Si                  
Atom  Qatom  Qorb
               3s      3s      3py     3pz     3px     3py     3pz     3px     
               3Pdxy   3Pdyz   3Pdz2   3Pdxz   3Pdx2-y2
   1  4.001   0.640   0.571   0.243   0.243   0.243   0.521   0.521   0.521
              0.119   0.119   0.070   0.119   0.070
   2  4.000   0.640   0.571   0.245   0.245   0.245   0.520   0.520   0.520
              0.119   0.119   0.070   0.119   0.070
   3  4.000   0.641   0.571   0.243   0.243   0.243   0.521   0.521   0.521
              0.119   0.119   0.070   0.119   0.070
   4  4.000   0.640   0.571   0.245   0.245   0.245   0.520   0.520   0.520
              0.119   0.119   0.070   0.119   0.070
   5  4.000   0.641   0.571   0.243   0.243   0.243   0.521   0.521   0.521
              0.119   0.119   0.070   0.119   0.070
   6  4.000   0.640   0.571   0.245   0.245   0.245   0.520   0.520   0.520
              0.119   0.119   0.070   0.119   0.070
   7  4.000   0.641   0.571   0.243   0.243   0.243   0.521   0.521   0.521
              0.119   0.119   0.070   0.119   0.070
   8  4.000   0.640   0.571   0.245   0.245   0.245   0.520   0.520   0.520
              0.119   0.119   0.070   0.119   0.070

mulliken: Qtot =       32.000

* Maximum dynamic memory allocated =    84 MB

outcoor: Relaxed atomic coordinates (Ang):                  
    0.09332617    0.09332709    0.09332654   1       1  Si
    1.47407648    1.47407677    1.47407629   1       2  Si
    2.85569647    2.85569669    0.10095096   1       3  Si
    4.23499945    4.23499946    1.47909543   1       4  Si
    2.85569664    0.10095213    2.85569632   1       5  Si
    4.23499906    1.47909549    4.23499872   1       6  Si
    0.10095227    2.85569704    2.85569658   1       7  Si
    1.47909539    4.23499985    4.23499906   1       8  Si

outcell: Unit cell vectors (Ang):
        5.516791    0.001954    0.001954
        0.001954    5.516791    0.001954
        0.001954    0.001954    5.516791

outcell: Cell vector modules (Ang)   :    5.516792    5.516792    5.516792
outcell: Cell angles (23,13,12) (deg):     89.9594     89.9594     89.9594
outcell: Cell volume (Ang**3)        :    167.9034

coxmol: Writing XMOL coordinates into file si.xyz                                                          
Writing WFSX for selected k-points in si.selected.WFSX

writewave: Wave Functions Coefficients

     Number of k-points =        1
        Number of Spins =        1
   Number of basis orbs =      104


                                                                  ******
            k-point =        1    0.000000  0.000000  0.000000
     Spin component =        1
 Num. wavefunctions =       50
Use readwfsx utility to print wavefunction coefficients from WFSX file
Computing bands...

siesta: Band k vectors (Bohr**-1):
  ik           k
   1    0.319704    0.319704    0.319704
   2    0.306915    0.306915    0.306915
[...]
         76.20  86.86  94.20  95.22
  93  1 -16.07 -15.42 -14.29 -13.96 -12.13 -11.75 -10.35  -9.49  -9.36  -9.19
         -8.19  -7.95  -7.75  -7.50  -7.27  -6.37  -3.20  -3.17  -2.75  -2.10
         -1.99  -1.61  -1.59  -0.84  -0.83  -0.64  -0.37  -0.29   0.61   0.67
          1.28   2.05   2.08   2.08   2.74   3.57   4.03   4.06   4.68   5.71
          5.82   5.87   7.72   7.88   8.35   8.50   9.02   9.42   9.52  10.24
         10.59  11.02  11.12  11.36  11.46  11.80  12.13  12.40  13.03  13.33
         14.05  14.22  14.49  14.53  14.70  15.56  15.92  16.18  16.39  17.07
         17.67  17.77  18.68  18.84  19.46  20.66  21.76  22.30  22.72  23.16
         23.31  23.64  24.61  25.00  26.15  26.40  31.73  36.27  37.62  39.65
         41.59  50.19  52.30  53.52  55.46  64.31  64.50  64.59  66.87  70.87
         76.29  86.90  94.28  95.17
  94  1 -15.87 -15.25 -14.37 -14.37 -12.02 -12.02 -11.00 -10.21  -8.78  -8.78
         -7.79  -7.49  -7.49  -7.19  -6.69  -6.67  -3.32  -3.17  -2.96  -2.96
         -2.07  -1.43  -1.43  -1.27  -1.22  -0.47  -0.26   0.48   0.48   0.69
          0.92   0.92   2.93   2.93   3.29   3.41   5.02   5.12   5.17   5.50
          5.52   5.53   6.53   6.53   7.32   8.32   8.95   9.19   9.20   9.20
          9.49   9.50  11.10  11.41  11.41  11.83  13.14  13.38  13.51  13.51
         13.57  14.61  15.02  15.02  16.11  16.11  16.34  16.51  17.20  17.40
         17.41  17.95  17.95  19.18  19.27  19.27  20.77  21.92  22.04  23.66
         24.50  24.50  25.19  27.14  27.59  27.59  31.93  32.81  35.34  35.35
         41.22  48.91  54.62  54.63  57.82  59.52  63.67  65.66  65.67  68.59
         84.07  88.20  88.24  94.32
  95  1 -15.48 -14.95 -14.95 -14.60 -12.03 -11.65 -11.65 -11.03  -8.33  -7.92
         -7.92  -7.21  -6.96  -6.93  -6.93  -6.38  -3.30  -3.18  -2.86  -2.86
         -2.09  -2.09  -1.76  -1.71  -1.31  -0.94  -0.83  -0.83   1.43   1.43
          2.20   2.41   2.59   3.26   3.61   4.07   4.07   4.44   4.44   4.78
          5.23   7.07   7.07   7.20   7.20   7.83   8.12   8.66   8.96   8.96
          9.01   9.33   9.36  10.09  10.53  10.53  13.85  14.11  14.11  15.08
         15.09  15.14  15.48  15.63  15.80  16.01  16.47  16.48  17.62  18.37
         18.37  18.42  18.95  18.95  19.39  19.71  20.49  20.49  21.13  21.54
         26.90  27.01  27.01  28.46  28.66  32.23  32.23  34.33  38.82  39.80
         39.81  45.87  54.88  54.88  58.79  59.34  60.92  73.17  73.18  78.33
         84.59  84.63  84.97 106.60
  96  1 -15.48 -14.95 -14.95 -14.60 -12.03 -11.65 -11.65 -11.02  -8.33  -7.92
         -7.91  -7.22  -6.97  -6.93  -6.92  -6.39  -3.31  -3.19  -2.86  -2.85
         -2.08  -2.08  -1.77  -1.72  -1.31  -0.94  -0.83  -0.81   1.44   1.45
          2.19   2.41   2.61   3.24   3.60   4.06   4.06   4.42   4.43   4.78
          5.25   7.05   7.05   7.18   7.19   7.83   8.14   8.65   8.95   8.96
          9.01   9.34   9.38  10.10  10.54  10.57  13.87  14.10  14.11  15.07
         15.09  15.15  15.50  15.66  15.81  16.01  16.44  16.45  17.62  18.38
         18.39  18.41  18.93  18.95  19.38  19.68  20.48  20.49  21.12  21.58
         26.88  26.99  27.04  28.42  28.66  32.22  32.24  34.30  38.79  39.79
         39.82  45.83  54.95  54.99  58.68  59.28  60.75  73.06  73.09  78.38
         84.54  84.60  85.03 105.88
  97  1 -15.48 -14.95 -14.95 -14.61 -12.04 -11.65 -11.65 -11.02  -8.32  -7.92
         -7.92  -7.23  -6.96  -6.93  -6.93  -6.39  -3.31  -3.18  -2.87  -2.86
         -2.09  -2.09  -1.77  -1.72  -1.30  -0.93  -0.82  -0.82   1.45   1.45
          2.21   2.42   2.60   3.24   3.59   4.05   4.05   4.43   4.43   4.76
          5.22   7.05   7.05   7.20   7.20   7.84   8.12   8.64   8.95   8.95
          9.00   9.35   9.37  10.11  10.57  10.57  13.88  14.12  14.12  15.09
         15.10  15.13  15.50  15.64  15.80  16.00  16.44  16.44  17.60  18.37
         18.37  18.41  18.96  18.96  19.38  19.70  20.48  20.48  21.12  21.57
         26.92  27.00  27.00  28.40  28.69  32.19  32.19  34.30  38.83  39.76
         39.77  45.91  54.78  54.79  58.77  59.33  60.81  73.08  73.10  78.25
         84.47  84.50  85.06 106.20
  98  1 -15.65 -15.05 -15.05 -14.54 -11.64 -11.01 -11.01 -10.22  -9.28  -8.81
         -8.81  -8.22  -7.08  -7.02  -7.02  -6.32  -3.30  -2.68  -2.43  -2.43
         -1.74  -1.74  -1.40  -1.17  -0.10  -0.10  -0.08   0.10   0.45   0.45
          0.72   1.24   1.73   2.15   2.47   2.73   2.73   4.27   4.27   5.36
          5.76   7.68   7.68   8.19   8.73   8.74   9.38   9.70   9.91  10.01
         10.01  10.69  11.09  11.74  11.75  12.04  12.73  12.91  12.91  12.91
         13.50  13.79  13.79  14.40  14.91  15.13  15.13  15.54  17.40  18.18
         18.18  19.22  19.84  19.96  19.96  20.43  21.52  21.52  21.79  22.34
         25.64  25.64  26.00  26.00  27.63  36.02  36.02  40.44  42.72  42.72
         48.96  52.13  52.13  53.06  58.16  59.67  60.84  68.65  68.67  78.70
         79.04  81.36  81.38  97.46
  99  1 -15.65 -15.05 -15.05 -14.54 -11.63 -11.02 -11.01 -10.23  -9.29  -8.81
         -8.81  -8.22  -7.08  -7.02  -7.02  -6.32  -3.30  -2.67  -2.43  -2.43
         -1.73  -1.73  -1.39  -1.16  -0.11  -0.11  -0.09   0.08   0.44   0.44
          0.71   1.24   1.75   2.16   2.47   2.74   2.74   4.27   4.27   5.37
          5.76   7.68   7.68   8.19   8.74   8.74   9.38   9.69   9.89  10.03
         10.03  10.70  11.11  11.72  11.73  12.03  12.73  12.87  12.87  12.90
         13.47  13.78  13.79  14.41  14.92  15.16  15.17  15.55  17.40  18.18
         18.18  19.23  19.85  19.95  19.96  20.43  21.53  21.53  21.79  22.33
         25.62  25.63  26.00  26.00  27.66  36.03  36.03  40.44  42.82  42.82
         48.99  52.04  52.05  53.11  58.21  59.72  60.74  68.80  68.83  78.66
         79.07  81.42  81.43  97.41
 100  1 -15.48 -14.95 -14.95 -14.60 -12.03 -11.65 -11.65 -11.03  -8.33  -7.92
         -7.92  -7.21  -6.96  -6.93  -6.93  -6.38  -3.30  -3.18  -2.86  -2.86
         -2.09  -2.09  -1.76  -1.71  -1.31  -0.94  -0.83  -0.83   1.43   1.43
          2.20   2.41   2.59   3.26   3.61   4.07   4.07   4.44   4.44   4.78
          5.23   7.07   7.07   7.20   7.20   7.83   8.12   8.66   8.96   8.96
          9.01   9.33   9.36  10.09  10.53  10.53  13.85  14.11  14.11  15.08
         15.09  15.14  15.48  15.63  15.80  16.01  16.47  16.48  17.62  18.37
         18.37  18.42  18.95  18.95  19.39  19.71  20.49  20.49  21.13  21.54
         26.90  27.01  27.01  28.46  28.66  32.23  32.23  34.33  38.82  39.80
         39.81  45.87  54.88  54.88  58.79  59.34  60.92  73.17  73.18  78.33
         84.59  84.63  84.97 106.60
 101  1 -15.18 -14.83 -14.83 -14.83 -12.11 -12.11 -12.11 -11.74  -7.17  -7.17
         -7.17  -6.76  -6.76  -6.76  -6.54  -6.54  -3.92  -3.46  -3.46  -3.46
         -2.02  -2.01  -2.01  -1.89  -1.89  -1.61  -1.61  -1.61   2.93   2.93
          2.93   3.40   4.15   4.15   4.29   4.30   4.30   5.28   5.47   5.47
          5.47   6.27   6.27   6.27   6.34   6.34   6.35   7.74   7.74   8.02
          8.02   8.03   8.74   8.74   8.74   8.85  15.88  15.96  15.96  15.96
         16.44  16.44  16.64  16.64  16.64  17.28  17.29  17.29  18.04  18.04
         18.04  18.98  18.99  18.99  19.42  19.43  19.43  19.98  19.98  21.10
         28.04  28.04  28.04  29.41  29.41  29.68  29.68  29.68  49.31  49.31
         49.31  53.72  63.24  63.24  63.31  67.04  67.06  67.06  79.15  79.15
         92.11  92.11  92.17  98.91
 102  1 -15.17 -14.83 -14.83 -14.83 -12.12 -12.11 -12.11 -11.73  -7.17  -7.17
         -7.16  -6.77  -6.76  -6.76  -6.55  -6.54  -3.94  -3.46  -3.46  -3.45
         -2.01  -2.01  -2.01  -1.90  -1.90  -1.61  -1.61  -1.60   2.94   2.95
          2.95   3.39   4.14   4.16   4.29   4.29   4.30   5.29   5.45   5.46
          5.46   6.25   6.25   6.25   6.32   6.33   6.33   7.74   7.76   8.03
          8.04   8.04   8.74   8.76   8.76   8.87  15.90  15.94  15.96  15.97
         16.44  16.46  16.64  16.66  16.66  17.26  17.27  17.27  18.00  18.04
         18.04  18.99  19.00  19.00  19.42  19.42  19.43  19.97  19.98  21.15
         28.01  28.01  28.06  29.36  29.39  29.69  29.69  29.72  49.26  49.27
         49.43  53.73  63.07  63.13  63.42  67.09  67.16  67.18  78.42  78.79
         91.99  92.04  92.07  98.72
 103  1 -15.48 -14.95 -14.95 -14.60 -12.03 -11.65 -11.65 -11.02  -8.33  -7.92
         -7.91  -7.22  -6.97  -6.93  -6.92  -6.39  -3.31  -3.19  -2.86  -2.85
         -2.08  -2.08  -1.77  -1.72  -1.31  -0.94  -0.83  -0.81   1.44   1.45
          2.19   2.41   2.61   3.24   3.60   4.06   4.06   4.42   4.43   4.78
          5.25   7.05   7.05   7.18   7.19   7.83   8.14   8.65   8.95   8.96
          9.01   9.34   9.38  10.10  10.54  10.57  13.87  14.10  14.11  15.07
         15.09  15.15  15.50  15.66  15.81  16.01  16.44  16.45  17.62  18.38
         18.39  18.41  18.93  18.95  19.38  19.68  20.48  20.49  21.12  21.58
         26.88  26.99  27.04  28.42  28.66  32.22  32.24  34.30  38.79  39.79
         39.82  45.83  54.95  54.99  58.68  59.28  60.75  73.06  73.09  78.38
         84.54  84.60  85.03 105.88
 104  1 -15.65 -15.05 -15.05 -14.53 -11.63 -11.02 -11.01 -10.22  -9.28  -8.81
         -8.80  -8.22  -7.09  -7.02  -7.01  -6.33  -3.31  -2.69  -2.42  -2.42
         -1.74  -1.73  -1.40  -1.17  -0.10  -0.10  -0.09   0.08   0.44   0.45
          0.71   1.23   1.73   2.15   2.49   2.74   2.75   4.24   4.24   5.38
          5.78   7.65   7.65   8.18   8.74   8.75   9.40   9.69   9.91  10.01
         10.03  10.70  11.10  11.72  11.73  12.04  12.74  12.89  12.90  12.91
         13.49  13.77  13.78  14.43  14.92  15.13  15.14  15.55  17.43  18.19
         18.20  19.20  19.83  19.95  19.96  20.42  21.53  21.53  21.77  22.34
         25.61  25.62  26.00  26.02  27.64  36.02  36.04  40.41  42.80  42.82
         48.83  52.19  52.24  53.12  58.04  59.67  60.84  68.67  68.68  78.70
         79.13  81.32  81.39  97.48
 105  1 -15.65 -15.05 -15.05 -14.53 -11.63 -11.02 -11.01 -10.22  -9.28  -8.81
         -8.80  -8.22  -7.09  -7.02  -7.01  -6.33  -3.31  -2.69  -2.42  -2.42
         -1.74  -1.73  -1.40  -1.17  -0.10  -0.10  -0.09   0.08   0.44   0.45
          0.71   1.23   1.73   2.15   2.49   2.74   2.75   4.24   4.24   5.38
          5.78   7.65   7.65   8.18   8.74   8.75   9.40   9.69   9.91  10.01
         10.03  10.70  11.10  11.72  11.73  12.04  12.74  12.89  12.90  12.91
         13.49  13.77  13.78  14.43  14.92  15.13  15.14  15.55  17.43  18.19
         18.20  19.20  19.83  19.95  19.96  20.42  21.53  21.53  21.77  22.34
         25.61  25.62  26.00  26.02  27.64  36.02  36.04  40.41  42.80  42.82
         48.83  52.19  52.24  53.12  58.04  59.67  60.84  68.67  68.68  78.70
         79.13  81.32  81.39  97.48
 106  1 -15.48 -14.95 -14.95 -14.60 -12.03 -11.65 -11.65 -11.02  -8.33  -7.92
         -7.91  -7.22  -6.97  -6.93  -6.92  -6.39  -3.31  -3.19  -2.86  -2.85
         -2.08  -2.08  -1.77  -1.72  -1.31  -0.94  -0.83  -0.81   1.44   1.45
          2.19   2.41   2.61   3.24   3.60   4.06   4.06   4.42   4.43   4.78
          5.25   7.05   7.05   7.18   7.19   7.83   8.14   8.65   8.95   8.96
          9.01   9.34   9.38  10.10  10.54  10.57  13.87  14.10  14.11  15.07
         15.09  15.15  15.50  15.66  15.81  16.01  16.44  16.45  17.62  18.38
         18.39  18.41  18.93  18.95  19.38  19.68  20.48  20.49  21.12  21.58
         26.88  26.99  27.04  28.42  28.66  32.22  32.24  34.30  38.79  39.79
         39.82  45.83  54.95  54.99  58.68  59.28  60.75  73.06  73.09  78.38
         84.54  84.60  85.03 105.88
 107  1 -15.17 -14.83 -14.83 -14.83 -12.12 -12.11 -12.11 -11.73  -7.17  -7.17
         -7.16  -6.77  -6.76  -6.76  -6.55  -6.54  -3.94  -3.46  -3.46  -3.45
         -2.01  -2.01  -2.01  -1.90  -1.90  -1.61  -1.61  -1.60   2.94   2.95
          2.95   3.39   4.14   4.16   4.29   4.29   4.30   5.29   5.45   5.46
          5.46   6.25   6.25   6.25   6.32   6.33   6.33   7.74   7.76   8.03
          8.04   8.04   8.74   8.76   8.76   8.87  15.90  15.94  15.96  15.97
         16.44  16.46  16.64  16.66  16.66  17.26  17.27  17.27  18.00  18.04
         18.04  18.99  19.00  19.00  19.42  19.42  19.43  19.97  19.98  21.15
         28.01  28.01  28.06  29.36  29.39  29.69  29.69  29.72  49.26  49.27
         49.43  53.73  63.07  63.13  63.42  67.09  67.16  67.18  78.42  78.79
         91.99  92.04  92.07  98.72
 108  1 -15.17 -14.83 -14.83 -14.83 -12.12 -12.11 -12.11 -11.73  -7.17  -7.17
         -7.16  -6.77  -6.76  -6.76  -6.55  -6.54  -3.94  -3.46  -3.46  -3.45
         -2.01  -2.01  -2.01  -1.90  -1.90  -1.61  -1.61  -1.60   2.94   2.95
          2.95   3.39   4.14   4.16   4.29   4.29   4.30   5.29   5.45   5.46
          5.46   6.25   6.25   6.25   6.32   6.33   6.33   7.74   7.76   8.03
          8.04   8.04   8.74   8.76   8.76   8.87  15.90  15.94  15.96  15.97
         16.44  16.46  16.64  16.66  16.66  17.26  17.27  17.27  18.00  18.04
         18.04  18.99  19.00  19.00  19.42  19.42  19.43  19.97  19.98  21.15
         28.01  28.01  28.06  29.36  29.39  29.69  29.69  29.72  49.26  49.27
         49.43  53.73  63.07  63.13  63.42  67.09  67.16  67.18  78.42  78.79
         91.99  92.04  92.07  98.72
siesta: Fermi energy =      -5.002769 eV

siesta: Program's energy decomposition (eV):
siesta: Ebs     =      -331.816402
siesta: Eions   =      1510.441798
siesta: Ena     =       471.244678
siesta: Ekin    =       319.440755
siesta: Enl     =       127.119321
siesta: DEna    =         6.568504
siesta: DUscf   =         1.521287
siesta: DUext   =         0.000000
siesta: Exc     =      -446.127430
siesta: eta*DQ  =         0.000000
siesta: Emadel  =         0.000000
siesta: Emeta   =         0.000000
siesta: Emolmec =         0.000000
siesta: Ekinion =         0.000000
siesta: Eharris =     -1030.674729
siesta: Etot    =     -1030.674683
siesta: FreeEng =     -1030.674683

siesta: Final energy (eV):
siesta:  Band Struct. =    -331.816402
siesta:       Kinetic =     319.440755
siesta:       Hartree =      59.841359
siesta:    Ext. field =       0.000000
siesta:   Exch.-corr. =    -446.127430
siesta:  Ion-electron =    -421.998874
siesta:       Ion-ion =    -541.830492
siesta:       Ekinion =       0.000000
siesta:         Total =   -1030.674683

siesta: Stress tensor (static) (eV/Ang**3):
siesta:    -0.000679    0.000382    0.000382
siesta:     0.000382   -0.000679    0.000382
siesta:     0.000382    0.000382   -0.000679

siesta: Constrained stress tensor (static) (eV/Ang**3):
siesta:    -0.000679    0.000382    0.000382
siesta:     0.000382   -0.000679    0.000382
siesta:     0.000382    0.000382   -0.000679

siesta: Cell volume =        167.903375 Ang**3

siesta: Pressure (static):
siesta:                Solid            Molecule  Units
siesta:           0.00000740          0.00000763  Ry/Bohr**3
siesta:           0.00067903          0.00070037  eV/Ang**3
siesta:           1.08793943          1.12212265  kBar
(Free)E+ p_basis*V_orbitals  =       -1021.736953
(Free)Eharris+ p_basis*V_orbitals  =       -1021.736269

* Maximum dynamic memory allocated : Node    0 =    84 MB

* Maximum memory occured during init_pulay_arrrays            

timer: CPU execution times:
timer:  Routine       Calls   Time/call    Tot.time        %
timer:  siesta            1    1179.510    1179.510   100.00
timer:  Setup             1       0.124       0.124     0.01
timer:  bands             3       0.513       1.540     0.13
timer:  writewave         3       0.008       0.024     0.00
timer:  KSV_init          1       0.000       0.000     0.00
timer:  IterMD           14      84.123    1177.726    99.85
timer:  hsparse          14       0.164       2.300     0.19
timer:  overlap          14       0.129       1.800     0.15
timer:  IterSCF          63      15.302     964.052    81.73
timer:  kinefsm          28       0.126       3.536     0.30
timer:  nlefsm           28       3.686     103.198     8.75
timer:  DHSCF            77       8.438     649.721    55.08
timer:  DHSCF1           14       0.046       0.648     0.05
timer:  DHSCF2           14       2.158      30.206     2.56
timer:  REORD           490       0.000       0.036     0.00
timer:  POISON           91       0.004       0.396     0.03
timer:  DHSCF3           77       7.359     566.612    48.04
timer:  rhoofd           77       3.359     258.664    21.93
timer:  cellXC           77       0.111       8.556     0.73
timer:  vmat             77       3.882     298.947    25.34
timer:  MolMec           28       0.000       0.000     0.00
timer:  diagon           63       6.550     412.674    34.99
timer:  c-eigval       7737       0.016     125.232    10.62
timer:  c-buildHS      7737       0.012      90.504     7.67
timer:  cdiag         15374       0.007     107.129     9.08
timer:  cdiag1        15374       0.001       8.031     0.68
timer:  cdiag2        15374       0.002      27.936     2.37
timer:  cdiag3        15374       0.004      68.939     5.84
timer:  cdiag4        15374       0.000       1.875     0.16
timer:  c-eigvec       7637       0.021     162.040    13.74
timer:  c-buildD       7636       0.017     126.254    10.70
timer:  DHSCF4           14       3.731      52.227     4.43
timer:  dfscf            14       3.510      49.135     4.17
timer:  overfsm          14       0.121       1.692     0.14
timer:  optical           1       0.000       0.000     0.00
  

elaps: ELAPSED times:
elaps:  Routine       Calls   Time/call    Tot.time        %
elaps:  siesta            1    1184.745    1184.745   100.00
elaps:  Setup             1       0.129       0.129     0.01
elaps:  bands             3       0.517       1.550     0.13
elaps:  writewave         3       0.007       0.020     0.00
elaps:  KSV_init          1       0.000       0.000     0.00
elaps:  IterMD           14      84.496    1182.950    99.85
elaps:  hsparse          14       0.165       2.308     0.19
elaps:  overlap          14       0.128       1.798     0.15
elaps:  IterSCF          63      15.371     968.359    81.74
elaps:  kinefsm          28       0.127       3.550     0.30
elaps:  nlefsm           28       3.699     103.576     8.74
elaps:  DHSCF            77       8.476     652.630    55.09
elaps:  DHSCF1           14       0.046       0.644     0.05
elaps:  DHSCF2           14       2.165      30.312     2.56
elaps:  REORD           490       0.000       0.044     0.00
elaps:  POISON           91       0.004       0.395     0.03
elaps:  DHSCF3           77       7.392     569.221    48.05
elaps:  rhoofd           77       3.376     259.935    21.94
elaps:  cellXC           77       0.111       8.565     0.72
elaps:  vmat             77       3.900     300.268    25.34
elaps:  MolMec           28       0.000       0.000     0.00
elaps:  diagon           63       6.580     414.527    34.99
elaps:  c-eigval       7737       0.016     125.856    10.62
elaps:  c-buildHS      7737       0.012      90.753     7.66
elaps:  cdiag         15374       0.007     107.898     9.11
elaps:  cdiag1        15374       0.001       8.065     0.68
elaps:  cdiag2        15374       0.002      28.168     2.38
elaps:  cdiag3        15374       0.005      69.260     5.85
elaps:  cdiag4        15374       0.000       2.049     0.17
elaps:  c-eigvec       7637       0.021     162.948    13.75
elaps:  c-buildD       7636       0.017     126.665    10.69
elaps:  DHSCF4           14       3.745      52.428     4.43
elaps:  dfscf            14       3.523      49.315     4.16
elaps:  overfsm          14       0.122       1.711     0.14
elaps:  optical           1       0.000       0.000     0.00
  
>> End of run:   9-MAY-2013  21:32:10

=====================================================================================
=   BAD TERMINATION OF ONE OF YOUR APPLICATION PROCESSES
=   EXIT CODE: 134
=   CLEANING UP REMAINING PROCESSES
=   YOU CAN IGNORE THE BELOW CLEANUP MESSAGES
=====================================================================================
APPLICATION TERMINATED WITH THE EXIT STRING: Aborted (signal 6)
