Siesta Version:                                        siesta-3.2
Architecture  : i686-apple-darwin10.8.0--unknown
Compiler flags: g95 -g -O2
SERIAL version

* Running in serial mode
>> Start of run:  13-MAY-2013   9:49:31

                           ***********************       
                           *  WELCOME TO SIESTA  *       
                           ***********************       

reinit: Reading from standard input
************************** Dump of input data file ****************************
# FDF for silicon
SystemName             silicon          # Descriptive name of the system
SystemLabel            si          # Short name for naming files
NumberOfAtoms 8
NumberOfSpecies 1
%block ChemicalSpeciesLabel
1 14 Si
%endblock ChemicalSpeciesLabel
LatticeConstant  5.43 Ang
##Basis set Definition##
PAO.BasisType          split        # Type of PAO basis set
PAO.EnergyShift        50 meV
PAO.BasisSize          DZP          # (DZP) Double-z + polarization
#%block LatticeVectors
#0.500 0.500 0.000
#0.500 0.000 0.500
#0.000 0.500 0.500
#%endblock LatticeVectors
AtomicCoordinatesFormat NotScaledCartesianAng
%block AtomicCoordinatesAndAtomicSpecies
	0.00000000	0.00000000	0.00000000  1 Si  1
	1.36000000	1.36000000	1.36000000  1 Si  2
	2.72000000	2.72000000	0.00000000  1 Si  3
	4.08000000	4.08000000	1.36000000  1 Si  4
	2.72000000	0.00000000	2.72000000  1 Si  5
	4.08000000	1.36000000	4.08000000  1 Si  6
	0.00000000	2.72000000	2.72000000  1 Si  7
	1.36000000	4.08000000	4.08000000  1 Si  8
%endblock AtomicCoordinatesAndAtomicSpecies
MeshCutoff 120.0 Ry # 100, 120, 180, 260
kgrid_cutoff 30.0 Bohr # 30, 35, 40, 45
DM.Mixingweight  0.3
DM.NumberPulay    3
DM.Tolerance      1.d-3
DM.UseSaveDM      true
ElectronicTemperature 25 meV
SolutionMethod    diagon
XC.functional      GGA	    # Generalized Gradient Approximation
XC.authors        PBE          # Perdew-Burke-Ernzerhof
SpinPolarized     false
MD.TypeOfRun           CG           # Type of dynamics:
MD.VariableCell        true
MD.NumCGsteps          100          # Number of CG steps for coordinate optimization
MD.MaxCGDispl          0.2 Bohr     # Maximum atomic displacement
                                    #   in one CG step (Bohr)
MD.MaxForceTol         0.04 eV/Ang  # Tolerance in the maximum
                                    #   atomic force (Ry/Bohr)
				
##Output Specification##
WriteMDhistory         true         # Trajectory information
WriteCoorStep          true
WriteCoorXmol          true
WriteMDXmol            true
WriteEigenvalues true
WriteKbands      true
WriteBands       true
WriteWaveFunctions true
WriteMullikenPoP   1
%block BandLines
1	1.000	1.000 1.000 L
25	0.000	0.000	0.000 \Gamma
30	2.000	0.000	0.000 X
10	2.000	0.500	0.500 U
35	0.000	0.000	0.000 \Gamma
%endblock BandLines
%block WaveFuncKPoints
0.0 0.0 0.0 from 1 to 50 # > 16 = 4/2*8 (Valenzelektronen/2, Atomzahl ...)
%endblock WaveFuncKpoints
************************** End of input data file *****************************

reinit: -----------------------------------------------------------------------
reinit: System Name: silicon
reinit: -----------------------------------------------------------------------
reinit: System Label: si                                                          
reinit: -----------------------------------------------------------------------

initatom: Reading input for the pseudopotentials and atomic orbitals ----------
 Species number:  1  Label: Si Atomic number: 14
Ground state valence configuration:   3s02  3p02
Reading pseudopotential information in formatted form from Si.psf

Valence configuration for pseudopotential generation:
3s( 2.00) rc: 1.75
3p( 2.00) rc: 1.94
3d( 0.00) rc: 2.09
4f( 0.00) rc: 2.09
For Si, standard SIESTA heuristics set lmxkb to 3
 (one more than the basis l, including polarization orbitals).
Use PS.lmax or PS.KBprojectors blocks to override.

<basis_specs>
===============================================================================
Si                   Z=  14    Mass=  28.090        Charge= 0.17977+309
Lmxo=1 Lmxkb= 3    BasisType=split      Semic=F
L=0  Nsemic=0  Cnfigmx=3
          n=1  nzeta=2  polorb=0
            splnorm:   0.15000    
               vcte:    0.0000    
               rinn:    0.0000    
                rcs:    0.0000      0.0000    
            lambdas:    1.0000      1.0000    
L=1  Nsemic=0  Cnfigmx=3
          n=1  nzeta=2  polorb=1
            splnorm:   0.15000    
               vcte:    0.0000    
               rinn:    0.0000    
                rcs:    0.0000      0.0000    
            lambdas:    1.0000      1.0000    
-------------------------------------------------------------------------------
L=0  Nkbl=1  erefs: 0.17977+309
L=1  Nkbl=1  erefs: 0.17977+309
L=2  Nkbl=1  erefs: 0.17977+309
L=3  Nkbl=1  erefs: 0.17977+309
===============================================================================
</basis_specs>

atom: Called for Si                    (Z =  14)

read_vps: Pseudopotential generation method:
read_vps: ATM3      Troullier-Martins                       
Total valence charge:    4.00000

read_vps: Pseudopotential includes a core correction:
read_vps: Pseudo-core for xc-correction

xc_check: Exchange-correlation functional:
xc_check: GGA Perdew, Burke & Ernzerhof 1996
V l=0 = -2*Zval/r beyond r=  2.0104
V l=1 = -2*Zval/r beyond r=  2.0873
V l=2 = -2*Zval/r beyond r=  2.1670
V l=3 = -2*Zval/r beyond r=  2.1670
All V_l potentials equal beyond r=  2.0613
This should be close to max(r_c) in ps generation
All pots = -2*Zval/r beyond r=  2.1670

VLOCAL1: 99.0% of the norm of Vloc inside     10.216 Ry
VLOCAL1: 99.9% of the norm of Vloc inside     23.282 Ry
atom: Maximum radius for 4*pi*r*r*local-pseudopot. charge    2.45560
atom: Maximum radius for r*vlocal+2*Zval:    2.14012
GHOST: No ghost state for L =  0
GHOST: No ghost state for L =  1
GHOST: No ghost state for L =  2
GHOST: No ghost state for L =  3

KBgen: Kleinman-Bylander projectors: 
   l= 0   rc=  2.306811   el= -0.791441   Ekb=  5.289775   kbcos=  0.291595
   l= 1   rc=  2.394965   el= -0.300632   Ekb=  1.944256   kbcos=  0.287657
   l= 2   rc=  2.549439   el=  0.001958   Ekb= -1.788485   kbcos= -0.056492
   l= 3   rc=  2.782581   el=  0.003046   Ekb= -0.472620   kbcos= -0.006203

KBgen: Total number of  Kleinman-Bylander projectors:   16
atom: -------------------------------------------------------------------------

atom: SANKEY-TYPE ORBITALS:
atom: Selected multiple-zeta basis: split     

SPLIT: Orbitals with angular momentum L= 0

SPLIT: Basis orbitals for state 3s

SPLIT: PAO cut-off radius determined from an
SPLIT: energy shift=  0.003675 Ry

   izeta = 1
                 lambda =    1.000000
                     rc =    6.116033
                 energy =   -0.788343
                kinetic =    0.528041
    potential(screened) =   -1.316383
       potential(ionic) =   -3.704743

   izeta = 2
                 rmatch =    4.530823
              splitnorm =    0.150000
                 energy =   -0.692892
                kinetic =    0.848665
    potential(screened) =   -1.541557
       potential(ionic) =   -4.044985

SPLIT: Orbitals with angular momentum L= 1

SPLIT: Basis orbitals for state 3p

SPLIT: PAO cut-off radius determined from an
SPLIT: energy shift=  0.003675 Ry

   izeta = 1
                 lambda =    1.000000
                     rc =    7.853192
                 energy =   -0.297152
                kinetic =    0.797948
    potential(screened) =   -1.095101
       potential(ionic) =   -3.275753

   izeta = 2
                 rmatch =    5.330310
              splitnorm =    0.150000
                 energy =   -0.228170
                kinetic =    1.148579
    potential(screened) =   -1.376749
       potential(ionic) =   -3.739005

POLgen: Perturbative polarization orbital with L=  2

POLgen: Polarization orbital for state 3p

   izeta = 1
                     rc =    7.853192
                 energy =    0.340222
                kinetic =    1.096718
    potential(screened) =   -0.756496
       potential(ionic) =   -2.716423
atom: Total number of Sankey-type orbitals: 13

atm_pop: Valence configuration (for local Pseudopot. screening):
 3s( 2.00)                                                            
 3p( 2.00)                                                            
Vna: chval, zval:    4.00000   4.00000

Vna:  Cut-off radius for the neutral-atom potential:   7.853192
comcore: Pseudo-core radius Rcore=  2.999314

atom: _________________________________________________________________________

prinput: Basis input ----------------------------------------------------------

PAO.BasisType split     

%block ChemicalSpeciesLabel
    1   14 Si                      # Species index, atomic number, species label
%endblock ChemicalSpeciesLabel

%block PAO.Basis                 # Define Basis set
Si                    2                    # Species label, number of l-shells
 n=3   0   2                         # n, l, Nzeta 
   6.116      4.531   
   1.000      1.000   
 n=3   1   2 P   1                   # n, l, Nzeta, Polarization, NzetaPol
   7.853      5.330   
   1.000      1.000   
%endblock PAO.Basis

prinput: ----------------------------------------------------------------------

coor:   Atomic-coordinates input format  =     Cartesian coordinates
coor:                                          (in Angstroms)

siesta: Atomic coordinates (Bohr) and species
siesta:      0.00000   0.00000   0.00000  1        1
siesta:      2.57003   2.57003   2.57003  1        2
siesta:      5.14006   5.14006   0.00000  1        3
siesta:      7.71009   7.71009   2.57003  1        4
siesta:      5.14006   0.00000   5.14006  1        5
siesta:      7.71009   2.57003   7.71009  1        6
siesta:      0.00000   5.14006   5.14006  1        7
siesta:      2.57003   7.71009   7.71009  1        8

siesta: System type = bulk      

initatomlists: Number of atoms, orbitals, and projectors:      8   104   128

siesta: ******************** Simulation parameters ****************************
siesta:
siesta: The following are some of the parameters of the simulation.
siesta: A complete list of the parameters used, including default values,
siesta: can be found in file out.fdf
siesta:
redata: Non-Collinear-spin run           =     F
redata: SpinPolarized (Up/Down) run      =     F
redata: Number of spin components        =     1
redata: Long output                      =     F
redata: Number of Atomic Species         =        1
redata: Charge density info will appear in .RHO file
redata: Write Mulliken Pop.              =     Atomic and Orbital charges
redata: Mesh Cutoff                      =   120.0000  Ry
redata: Net charge of the system         =     0.0000 |e|
redata: Max. number of SCF Iter          =       50
redata: Performing Pulay mixing using    =     3 iterations
redata: Mix DM in first SCF step ?       =     F
redata: Write Pulay info on disk?        =     F
redata: Discard 1st Pulay DM after  kick =     F
redata: New DM Mixing Weight             =     0.3000
redata: New DM Occupancy tolerance       = 0.000000000001
redata: No kicks to SCF
redata: DM Mixing Weight for Kicks       =     0.5000
redata: DM Tolerance for SCF             =     0.001000
redata: Require Energy convergence for SCF =     F
redata: DM Energy tolerance for SCF      =     0.000100 eV
redata: Require Harris convergence for SCF =     F
redata: DM Harris energy tolerance for SCF =     0.000100 eV
redata: Using Saved Data (generic)   =     F
redata: Use continuation files for DM    =     T
redata: Neglect nonoverlap interactions  =     F
redata: Method of Calculation            =     Diagonalization
redata: Divide and Conquer               =     T
redata: Electronic Temperature           =     0.0018  Ry
redata: Fix the spin of the system       =     F
redata: Dynamics option                  =     CG coord. optimization
redata: Variable cell                    =     T
redata: Use continuation files for CG    =     F
redata: Max atomic displ per move        =     0.2000  Bohr
redata: Maximum number of CG moves       =      100
redata: Force tolerance                  =     0.0016  Ry/Bohr
redata: Stress tolerance                 =     1.0000  GPa
redata: ***********************************************************************
Total number of electrons:    32.000000
Total ionic charge:    32.000000
 Kpoints in:  108 . Kpoints trimmed:  108

siesta: k-grid: Number of k-points =   108
siesta: k-grid: Cutoff (effective) =    16.290 Ang
siesta: k-grid: Supercell and displacements
siesta: k-grid:    0   6   0      0.500
siesta: k-grid:    0   0   6      0.500
siesta: k-grid:    6   0   0      0.500
Naive supercell factors:     5    5    5

superc: Internal auxiliary supercell:     5 x     5 x     5  =     125
superc: Number of atoms, orbitals, and projectors:   1000  13000  16000

* Maximum dynamic memory allocated =     1 MB

siesta:                 ==============================
                            Begin CG move =      0
                        ==============================

outcoor: Atomic coordinates (Ang):                          
    0.00000000    0.00000000    0.00000000   1       1  Si
    1.36000000    1.36000000    1.36000000   1       2  Si
    2.72000000    2.72000000    0.00000000   1       3  Si
    4.08000000    4.08000000    1.36000000   1       4  Si
    2.72000000    0.00000000    2.72000000   1       5  Si
    4.08000000    1.36000000    4.08000000   1       6  Si
    0.00000000    2.72000000    2.72000000   1       7  Si
    1.36000000    4.08000000    4.08000000   1       8  Si

superc: Internal auxiliary supercell:     5 x     5 x     5  =     125
superc: Number of atoms, orbitals, and projectors:   1000  13000  16000

outcell: Unit cell vectors (Ang):
        5.430000    0.000000    0.000000
        0.000000    5.430000    0.000000
        0.000000    0.000000    5.430000

outcell: Cell vector modules (Ang)   :    5.430000    5.430000    5.430000
outcell: Cell angles (23,13,12) (deg):     90.0000     90.0000     90.0000
outcell: Cell volume (Ang**3)        :    160.1030
New_DM. Step:     1
Initializing Density Matrix...

iodm: Reading Density Matrix from files
 Read DM has different structure. Fixing...

InitMesh: MESH =    36 x    36 x    36 =       46656
InitMesh: Mesh cutoff (required, used) =   120.000   121.481 Ry

* Maximum dynamic memory allocated =    76 MB

stepf: Fermi-Dirac step function

siesta: Program's energy decomposition (eV):
siesta: Ebs     =      -338.554089
siesta: Eions   =      1510.441798
siesta: Ena     =       468.364270
siesta: Ekin    =       322.609710
siesta: Enl     =       129.923782
siesta: DEna    =         4.923589
siesta: DUscf   =         1.457226
siesta: DUext   =         0.000000
siesta: Exc     =      -448.701005
siesta: eta*DQ  =         0.000000
siesta: Emadel  =         0.000000
siesta: Emeta   =         0.000000
siesta: Emolmec =         0.000000
siesta: Ekinion =         0.000000
siesta: Eharris =     -1030.567387
siesta: Etot    =     -1031.864226
siesta: FreeEng =     -1031.864226

siesta: iscf   Eharris(eV)      E_KS(eV)   FreeEng(eV)   dDmax  Ef(eV)
siesta:    1    -1030.5674    -1031.8642    -1031.8642  0.0387 -5.1061
timer: Routine,Calls,Time,% = IterSCF        1      23.117  96.75
elaps: Routine,Calls,Wall,% = IterSCF        1      23.122  96.74
siesta:    2    -1030.5715    -1030.5616    -1030.5616  0.0125 -5.0907
siesta:    3    -1030.5650    -1030.5804    -1030.5804  0.0028 -5.0901
siesta:    4    -1030.5649    -1030.5690    -1030.5690  0.0013 -5.0904
siesta:    5    -1030.5649    -1030.5622    -1030.5622  0.0006 -5.0908

siesta: E_KS(eV) =            -1030.5620

siesta: E_KS - E_eggbox =     -1030.5620

siesta: Atomic forces (eV/Ang):
----------------------------------------
   Tot    0.001335    0.001336    0.001303
----------------------------------------
   Max    0.082787
   Res    0.058385    sqrt( Sum f_i^2 / 3N )
----------------------------------------
   Max    0.082787    constrained

Stress-tensor-Voigt (kbar):      -44.99      -44.99      -44.99        1.16        1.16        1.16
(Free)E + p*V (eV/cell)    -1026.0663
Target enthalpy (eV/cell)    -1030.5620

siesta: Stress tensor (static) (eV/Ang**3):
        -0.028080    0.000726    0.000726
         0.000726   -0.028080    0.000726
         0.000726    0.000726   -0.028080

siesta: Pressure (static):         44.98980091  kBar

siesta: Stress tensor (total) (eV/Ang**3):
        -0.028080    0.000726    0.000726
         0.000726   -0.028080    0.000726
         0.000726    0.000726   -0.028080

siesta: Pressure (total):         44.98980091  kBar

mulliken: Mulliken Atomic and Orbital Populations:

Species: Si                  
Atom  Qatom  Qorb
               3s      3s      3py     3pz     3px     3py     3pz     3px     
               3Pdxy   3Pdyz   3Pdz2   3Pdxz   3Pdx2-y2
   1  4.002   0.599   0.591   0.204   0.204   0.204   0.556   0.556   0.556
              0.126   0.126   0.076   0.126   0.076
   2  3.999   0.612   0.585   0.208   0.208   0.208   0.552   0.552   0.552
              0.125   0.125   0.075   0.125   0.075
   3  3.999   0.607   0.587   0.205   0.208   0.205   0.554   0.552   0.554
              0.126   0.125   0.075   0.125   0.076
   4  4.000   0.603   0.589   0.206   0.202   0.206   0.554   0.556   0.554
              0.126   0.126   0.076   0.126   0.076
   5  3.999   0.607   0.587   0.208   0.205   0.205   0.552   0.554   0.554
              0.125   0.125   0.076   0.126   0.075
   6  4.000   0.603   0.589   0.202   0.206   0.206   0.556   0.554   0.554
              0.126   0.126   0.076   0.126   0.076
   7  3.999   0.607   0.587   0.205   0.205   0.208   0.554   0.554   0.552
              0.125   0.126   0.076   0.125   0.075
   8  4.000   0.603   0.589   0.206   0.206   0.202   0.554   0.554   0.556
              0.126   0.126   0.076   0.126   0.076

mulliken: Qtot =       32.000

cgvc: No target stress found, assuming hydrostatic MD.TargetPressure.

cgvc: Target stress (kBar)
cgvc:        -0.000       0.000       0.000
cgvc:         0.000      -0.000       0.000
cgvc:         0.000       0.000      -0.000

* Maximum dynamic memory allocated =    77 MB

siesta:                 ==============================
                            Begin CG move =      1
                        ==============================

outcoor: Atomic coordinates (Ang):                          
    0.00556273    0.00556235    0.00556131   1       1  Si
    1.37611669    1.37611659    1.37611620   1       2  Si
    2.75129317    2.75129324    0.00374088   1       3  Si
    4.12173757    4.12173770    1.37456168   1       4  Si
    2.75129319    0.00374243    2.75129292   1       5  Si
    4.12173726    1.37456176    4.12173815   1       6  Si
    0.00374251    2.75129335    2.75129305   1       7  Si
    1.37456183    4.12173745    4.12173821   1       8  Si
 Kpoints in:  108 . Kpoints trimmed:  108

siesta: k-grid: Number of k-points =   108
siesta: k-grid: Cutoff (effective) =    16.486 Ang
siesta: k-grid: Supercell and displacements
siesta: k-grid:    6   0   0      0.500
siesta: k-grid:    0   6   0      0.500
siesta: k-grid:    0   0   6      0.500
Naive supercell factors:     5    5    5

superc: Internal auxiliary supercell:     5 x     5 x     5  =     125
superc: Number of atoms, orbitals, and projectors:   1000  13000  16000

outcell: Unit cell vectors (Ang):
        5.495246   -0.001687   -0.001688
       -0.001687    5.495246   -0.001688
       -0.001688   -0.001688    5.495246

outcell: Cell vector modules (Ang)   :    5.495247    5.495247    5.495247
outcell: Cell angles (23,13,12) (deg):     90.0352     90.0352     90.0352
outcell: Cell volume (Ang**3)        :    165.9439
New_DM. Step:     2
Re-using DM from previous geometry...
Re-using DM without extrapolation (not allowed)
Density Matrix sparsity pattern changed.

InitMesh: MESH =    40 x    40 x    40 =       64000
InitMesh: Mesh cutoff (required, used) =   120.000   146.436 Ry

siesta: iscf   Eharris(eV)      E_KS(eV)   FreeEng(eV)   dDmax  Ef(eV)
siesta:    1    -1030.6596    -1029.6334    -1029.6334  0.0307 -5.0096
siesta:    2    -1030.6636    -1030.6553    -1030.6553  0.0109 -5.0246
siesta:    3    -1030.6581    -1030.6307    -1030.6307  0.0020 -5.0228
siesta:    4    -1030.6581    -1030.6521    -1030.6521  0.0010 -5.0226

siesta: E_KS(eV) =            -1030.6590

siesta: Atomic forces (eV/Ang):
----------------------------------------
   Tot    0.006682    0.006684    0.006705
----------------------------------------
   Max    0.047626
   Res    0.038312    sqrt( Sum f_i^2 / 3N )
----------------------------------------
   Max    0.047626    constrained

Stress-tensor-Voigt (kbar):      -11.23      -11.23      -11.23       -1.58       -1.58       -1.58
(Free)E + p*V (eV/cell)    -1029.4955
Target enthalpy (eV/cell)    -1030.6590

siesta: Stress tensor (static) (eV/Ang**3):
        -0.007011   -0.000985   -0.000986
        -0.000985   -0.007011   -0.000986
        -0.000986   -0.000986   -0.007011

siesta: Pressure (static):         11.23314156  kBar

siesta: Stress tensor (total) (eV/Ang**3):
        -0.007011   -0.000985   -0.000986
        -0.000985   -0.007011   -0.000986
        -0.000986   -0.000986   -0.007011

siesta: Pressure (total):         11.23314156  kBar

mulliken: Mulliken Atomic and Orbital Populations:

Species: Si                  
Atom  Qatom  Qorb
               3s      3s      3py     3pz     3px     3py     3pz     3px     
               3Pdxy   3Pdyz   3Pdz2   3Pdxz   3Pdx2-y2
   1  4.000   0.633   0.574   0.236   0.236   0.236   0.527   0.527   0.527
              0.120   0.120   0.071   0.120   0.071
   2  4.000   0.630   0.576   0.235   0.235   0.235   0.528   0.528   0.528
              0.120   0.120   0.071   0.120   0.071
   3  4.000   0.631   0.575   0.236   0.235   0.236   0.528   0.528   0.528
              0.120   0.120   0.071   0.120   0.071
   4  4.000   0.632   0.575   0.236   0.236   0.236   0.527   0.527   0.527
              0.120   0.120   0.071   0.120   0.071
   5  4.000   0.631   0.575   0.235   0.236   0.236   0.528   0.528   0.528
              0.120   0.120   0.071   0.120   0.071
   6  4.000   0.632   0.575   0.236   0.236   0.236   0.527   0.527   0.527
              0.120   0.120   0.071   0.120   0.071
   7  4.000   0.631   0.575   0.236   0.236   0.235   0.528   0.528   0.528
              0.120   0.120   0.071   0.120   0.071
   8  4.000   0.632   0.575   0.236   0.236   0.236   0.527   0.527   0.527
              0.120   0.120   0.071   0.120   0.071

mulliken: Qtot =       32.000

* Maximum dynamic memory allocated =    89 MB

siesta:                 ==============================
                            Begin CG move =      2
                        ==============================

outcoor: Atomic coordinates (Ang):                          
    0.01472380    0.01472279    0.01472004   1       1  Si
    1.40193248    1.40193222    1.40193117   1       2  Si
    2.80132917    2.80132935    0.00999595   1       3  Si
    4.18824737    4.18824771    1.39791186   1       4  Si
    2.80132923    0.01000004    2.80132849   1       5  Si
    4.18824656    1.39791206    4.18824890   1       6  Si
    0.01000025    2.80132964    2.80132884   1       7  Si
    1.39791224    4.18824707    4.18824906   1       8  Si
 Kpoints in:  108 . Kpoints trimmed:  108

siesta: k-grid: Number of k-points =   108
siesta: k-grid: Cutoff (effective) =    16.799 Ang
siesta: k-grid: Supercell and displacements
siesta: k-grid:    6   0   0      0.500
siesta: k-grid:    0   6   0      0.500
siesta: k-grid:    0   0   6      0.500
Naive supercell factors:     5    5    5

superc: Internal auxiliary supercell:     5 x     5 x     5  =     125
superc: Number of atoms, orbitals, and projectors:   1000  13000  16000

outcell: Unit cell vectors (Ang):
        5.599640   -0.004387   -0.004388
       -0.004387    5.599640   -0.004388
       -0.004388   -0.004388    5.599641

outcell: Cell vector modules (Ang)   :    5.599644    5.599644    5.599644
outcell: Cell angles (23,13,12) (deg):     90.0898     90.0898     90.0897
outcell: Cell volume (Ang**3)        :    175.5818
New_DM. Step:     3
Re-using DM from previous geometry...
Re-using DM without extrapolation (not allowed)

InitMesh: MESH =    40 x    40 x    40 =       64000
InitMesh: Mesh cutoff (required, used) =   120.000   141.027 Ry

siesta: iscf   Eharris(eV)      E_KS(eV)   FreeEng(eV)   dDmax  Ef(eV)
siesta:    1    -1030.5735    -1029.1000    -1029.1000  0.0399 -4.8910
siesta:    2    -1030.5863    -1030.5595    -1030.5595  0.0181 -4.9189
siesta:    3    -1030.5684    -1030.5106    -1030.5106  0.0029 -4.9121
siesta:    4    -1030.5683    -1030.5578    -1030.5578  0.0014 -4.9118
siesta:    5    -1030.5683    -1030.5673    -1030.5673  0.0008 -4.9115

siesta: E_KS(eV) =            -1030.5685

siesta: Atomic forces (eV/Ang):
----------------------------------------
   Tot   -0.005318   -0.005307   -0.005059
----------------------------------------
   Max    0.229604
   Res    0.166119    sqrt( Sum f_i^2 / 3N )
----------------------------------------
   Max    0.229604    constrained

Stress-tensor-Voigt (kbar):       34.20       34.20       34.20       -4.47       -4.47       -4.47
(Free)E + p*V (eV/cell)    -1034.3165
Target enthalpy (eV/cell)    -1030.5685

siesta: Stress tensor (static) (eV/Ang**3):
         0.021346   -0.002789   -0.002791
        -0.002789    0.021346   -0.002792
        -0.002791   -0.002792    0.021347

siesta: Pressure (static):        -34.20075445  kBar

siesta: Stress tensor (total) (eV/Ang**3):
         0.021346   -0.002789   -0.002791
        -0.002789    0.021346   -0.002792
        -0.002791   -0.002792    0.021347

siesta: Pressure (total):        -34.20075445  kBar

mulliken: Mulliken Atomic and Orbital Populations:

Species: Si                  
Atom  Qatom  Qorb
               3s      3s      3py     3pz     3px     3py     3pz     3px     
               3Pdxy   3Pdyz   3Pdz2   3Pdxz   3Pdx2-y2
   1  4.001   0.689   0.548   0.284   0.284   0.284   0.484   0.484   0.484
              0.111   0.111   0.064   0.111   0.064
   2  4.000   0.662   0.562   0.272   0.272   0.272   0.496   0.496   0.496
              0.114   0.114   0.066   0.114   0.066
   3  4.000   0.670   0.557   0.278   0.272   0.278   0.490   0.494   0.490
              0.112   0.113   0.066   0.113   0.065
   4  4.000   0.679   0.553   0.277   0.283   0.277   0.489   0.486   0.489
              0.113   0.112   0.064   0.112   0.065
   5  4.000   0.670   0.557   0.272   0.278   0.278   0.494   0.490   0.490
              0.113   0.113   0.065   0.112   0.066
   6  4.000   0.679   0.553   0.283   0.277   0.277   0.486   0.489   0.489
              0.112   0.112   0.065   0.113   0.064
   7  4.000   0.670   0.557   0.278   0.278   0.272   0.490   0.490   0.494
              0.113   0.112   0.065   0.113   0.066
   8  4.000   0.679   0.553   0.277   0.277   0.283   0.489   0.489   0.486
              0.112   0.113   0.065   0.112   0.064

mulliken: Qtot =       32.000

* Maximum dynamic memory allocated =    89 MB

siesta:                 ==============================
                            Begin CG move =      3
                        ==============================

outcoor: Atomic coordinates (Ang):                          
    0.00741878    0.00741828    0.00741689   1       1  Si
    1.38141792    1.38141778    1.38141725   1       2  Si
    2.76157695    2.76157704    0.00499896   1       3  Si
    4.13542991    4.13543008    1.37935406   1       4  Si
    2.76157698    0.00500103    2.76157661   1       5  Si
    4.13542950    1.37935416    4.13543068   1       6  Si
    0.00500113    2.76157719    2.76157679   1       7  Si
    1.37935426    4.13542976    4.13543076   1       8  Si
 Kpoints in:  108 . Kpoints trimmed:  108

siesta: k-grid: Number of k-points =   108
siesta: k-grid: Cutoff (effective) =    16.550 Ang
siesta: k-grid: Supercell and displacements
siesta: k-grid:    6   0   0      0.500
siesta: k-grid:    0   6   0      0.500
siesta: k-grid:    0   0   6      0.500
Naive supercell factors:     5    5    5

superc: Internal auxiliary supercell:     5 x     5 x     5  =     125
superc: Number of atoms, orbitals, and projectors:   1000  13000  16000

outcell: Unit cell vectors (Ang):
        5.516695   -0.002242   -0.002243
       -0.002242    5.516695   -0.002243
       -0.002243   -0.002243    5.516695

outcell: Cell vector modules (Ang)   :    5.516696    5.516696    5.516696
outcell: Cell angles (23,13,12) (deg):     90.0466     90.0466     90.0466
outcell: Cell volume (Ang**3)        :    167.8946
New_DM. Step:     4
Re-using DM from previous geometry...
Re-using DM without extrapolation (not allowed)

InitMesh: MESH =    40 x    40 x    40 =       64000
InitMesh: Mesh cutoff (required, used) =   120.000   145.299 Ry

siesta: iscf   Eharris(eV)      E_KS(eV)   FreeEng(eV)   dDmax  Ef(eV)
siesta:    1    -1030.6668    -1031.7462    -1031.7462  0.0306 -5.0023
siesta:    2    -1030.6733    -1030.6592    -1030.6592  0.0136 -4.9946
siesta:    3    -1030.6640    -1030.7010    -1030.7010  0.0022 -5.0037
siesta:    4    -1030.6639    -1030.6684    -1030.6684  0.0011 -5.0037
siesta:    5    -1030.6639    -1030.6624    -1030.6624  0.0007 -5.0039

siesta: E_KS(eV) =            -1030.6629

siesta: Atomic forces (eV/Ang):
----------------------------------------
   Tot    0.005770    0.005775    0.005778
----------------------------------------
   Max    0.089316
   Res    0.066923    sqrt( Sum f_i^2 / 3N )
----------------------------------------
   Max    0.089316    constrained

Stress-tensor-Voigt (kbar):       -1.18       -1.18       -1.18       -2.14       -2.14       -2.14
(Free)E + p*V (eV/cell)    -1030.5393
Target enthalpy (eV/cell)    -1030.6629

siesta: Stress tensor (static) (eV/Ang**3):
        -0.000736   -0.001335   -0.001335
        -0.001335   -0.000736   -0.001335
        -0.001335   -0.001335   -0.000736

siesta: Pressure (static):          1.17989292  kBar

siesta: Stress tensor (total) (eV/Ang**3):
        -0.000736   -0.001335   -0.001335
        -0.001335   -0.000736   -0.001335
        -0.001335   -0.001335   -0.000736

siesta: Pressure (total):          1.17989292  kBar

mulliken: Mulliken Atomic and Orbital Populations:

Species: Si                  
Atom  Qatom  Qorb
               3s      3s      3py     3pz     3px     3py     3pz     3px     
               3Pdxy   3Pdyz   3Pdz2   3Pdxz   3Pdx2-y2
   1  4.000   0.645   0.569   0.246   0.246   0.246   0.518   0.518   0.518
              0.118   0.118   0.070   0.118   0.070
   2  4.000   0.637   0.573   0.243   0.243   0.243   0.521   0.521   0.521
              0.119   0.119   0.070   0.119   0.070
   3  4.000   0.639   0.572   0.245   0.243   0.245   0.520   0.521   0.520
              0.119   0.119   0.070   0.119   0.070
   4  4.000   0.642   0.570   0.244   0.246   0.244   0.520   0.519   0.520
              0.119   0.118   0.070   0.118   0.070
   5  4.000   0.639   0.572   0.243   0.245   0.245   0.521   0.520   0.520
              0.119   0.119   0.070   0.119   0.070
   6  4.000   0.642   0.570   0.246   0.244   0.244   0.519   0.520   0.520
              0.118   0.118   0.070   0.119   0.070
   7  4.000   0.639   0.572   0.245   0.245   0.243   0.520   0.520   0.521
              0.119   0.119   0.070   0.119   0.070
   8  4.000   0.642   0.570   0.244   0.244   0.246   0.520   0.520   0.519
              0.118   0.119   0.070   0.118   0.070

mulliken: Qtot =       32.000

cgvc: Finished line minimization    1.  Mean atomic displacement =    0.0940

* Maximum dynamic memory allocated =    90 MB

siesta:                 ==============================
                            Begin CG move =      4
                        ==============================

outcoor: Atomic coordinates (Ang):                          
   -0.02722772   -0.02722514   -0.02721144   1       1  Si
    1.41450149    1.41450277    1.41449959   1       2  Si
    2.77201810    2.77201802   -0.00912322   1       3  Si
    4.21379949    4.21379837    1.43034307   1       4  Si
    2.77201772   -0.00914016    2.77202407   1       5  Si
    4.21380578    1.43035004    4.21379051   1       6  Si
   -0.00914373    2.77201765    2.77202531   1       7  Si
    1.43034973    4.21380361    4.21379004   1       8  Si
 Kpoints in:  108 . Kpoints trimmed:  108

siesta: k-grid: Number of k-points =   108
siesta: k-grid: Cutoff (effective) =    16.647 Ang
siesta: k-grid: Supercell and displacements
siesta: k-grid:    0   0   6      0.500
siesta: k-grid:    6   0   0      0.500
siesta: k-grid:    0   6   0      0.500
Naive supercell factors:     5    5    5

superc: Internal auxiliary supercell:     5 x     5 x     5  =     125
superc: Number of atoms, orbitals, and projectors:   1000  13000  16000

outcell: Unit cell vectors (Ang):
        5.548975    0.016631    0.016636
        0.016631    5.548975    0.016637
        0.016636    0.016637    5.548974

outcell: Cell vector modules (Ang)   :    5.549024    5.549024    5.549024
outcell: Cell angles (23,13,12) (deg):     89.6559     89.6559     89.6561
outcell: Cell volume (Ang**3)        :    170.8545
New_DM. Step:     5
Re-using DM from previous geometry...
Re-using DM without extrapolation (not allowed)
Density Matrix sparsity pattern changed.

InitMesh: MESH =    40 x    40 x    40 =       64000
InitMesh: Mesh cutoff (required, used) =   120.000   143.622 Ry

siesta: iscf   Eharris(eV)      E_KS(eV)   FreeEng(eV)   dDmax  Ef(eV)
siesta:    1    -1030.4841    -1030.0953    -1030.0953  0.0288 -4.8419
siesta:    2    -1030.5194    -1030.4343    -1030.4343  0.0315 -4.8440
siesta:    3    -1030.4639    -1030.3908    -1030.3908  0.0074 -4.8377
siesta:    4    -1030.4639    -1030.4571    -1030.4571  0.0011 -4.8377
siesta:    5    -1030.4638    -1030.4614    -1030.4614  0.0008 -4.8385

siesta: E_KS(eV) =            -1030.4610

siesta: Atomic forces (eV/Ang):
----------------------------------------
   Tot    0.002464    0.002472    0.002486
----------------------------------------
   Max    0.695961
   Res    0.568389    sqrt( Sum f_i^2 / 3N )
----------------------------------------
   Max    0.695961    constrained

Stress-tensor-Voigt (kbar):       10.27       10.27       10.27       18.66       18.67       18.67
(Free)E + p*V (eV/cell)    -1031.5560
Target enthalpy (eV/cell)    -1030.4610

siesta: Stress tensor (static) (eV/Ang**3):
         0.006409    0.011645    0.011652
         0.011645    0.006408    0.011653
         0.011652    0.011653    0.006409

siesta: Pressure (static):        -10.26792928  kBar

siesta: Stress tensor (total) (eV/Ang**3):
         0.006409    0.011645    0.011652
         0.011645    0.006408    0.011653
         0.011652    0.011653    0.006409

siesta: Pressure (total):        -10.26792928  kBar

mulliken: Mulliken Atomic and Orbital Populations:

Species: Si                  
Atom  Qatom  Qorb
               3s      3s      3py     3pz     3px     3py     3pz     3px     
               3Pdxy   3Pdyz   3Pdz2   3Pdxz   3Pdx2-y2
   1  4.003   0.631   0.576   0.250   0.250   0.250   0.517   0.517   0.517
              0.118   0.118   0.071   0.118   0.071
   2  3.998   0.670   0.557   0.265   0.265   0.265   0.500   0.500   0.500
              0.114   0.114   0.066   0.114   0.066
   3  3.999   0.657   0.563   0.257   0.265   0.257   0.508   0.502   0.508
              0.116   0.115   0.067   0.115   0.069
   4  4.001   0.644   0.570   0.258   0.250   0.258   0.509   0.514   0.509
              0.116   0.117   0.070   0.117   0.068
   5  3.999   0.657   0.563   0.265   0.257   0.257   0.502   0.508   0.508
              0.115   0.115   0.068   0.116   0.067
   6  4.001   0.644   0.570   0.250   0.258   0.258   0.514   0.509   0.509
              0.117   0.117   0.069   0.116   0.070
   7  3.999   0.657   0.563   0.257   0.257   0.265   0.508   0.508   0.502
              0.115   0.116   0.068   0.115   0.067
   8  4.001   0.644   0.570   0.258   0.258   0.250   0.509   0.509   0.514
              0.117   0.116   0.069   0.117   0.070

mulliken: Qtot =       32.000

* Maximum dynamic memory allocated =    90 MB

siesta:                 ==============================
                            Begin CG move =      5
                        ==============================

outcoor: Atomic coordinates (Ang):                          
    0.00383318    0.00383299    0.00383319   1       1  Si
    1.38486251    1.38486252    1.38486171   1       2  Si
    2.76269335    2.76269342    0.00354838   1       3  Si
    4.14359792    4.14359795    1.38466084   1       4  Si
    2.76269334    0.00354846    2.76269367   1       5  Si
    4.14359821    1.38466166    4.14359767   1       6  Si
    0.00354818    2.76269352    2.76269396   1       7  Si
    1.38466172    4.14359821    4.14359769   1       8  Si
 Kpoints in:  108 . Kpoints trimmed:  108

siesta: k-grid: Number of k-points =   108
siesta: k-grid: Cutoff (effective) =    16.560 Ang
siesta: k-grid: Supercell and displacements
siesta: k-grid:    6   0   0      0.500
siesta: k-grid:    0   6   0      0.500
siesta: k-grid:    0   0   6      0.500
Naive supercell factors:     5    5    5

superc: Internal auxiliary supercell:     5 x     5 x     5  =     125
superc: Number of atoms, orbitals, and projectors:   1000  13000  16000

outcell: Unit cell vectors (Ang):
        5.520074   -0.000267   -0.000267
       -0.000267    5.520074   -0.000267
       -0.000267   -0.000267    5.520074

outcell: Cell vector modules (Ang)   :    5.520074    5.520074    5.520074
outcell: Cell angles (23,13,12) (deg):     90.0055     90.0055     90.0055
outcell: Cell volume (Ang**3)        :    168.2034
New_DM. Step:     6
Re-using DM from previous geometry...
Re-using DM without extrapolation (not allowed)
Density Matrix sparsity pattern changed.

InitMesh: MESH =    40 x    40 x    40 =       64000
InitMesh: Mesh cutoff (required, used) =   120.000   145.122 Ry

siesta: iscf   Eharris(eV)      E_KS(eV)   FreeEng(eV)   dDmax  Ef(eV)
siesta:    1    -1030.6820    -1030.9915    -1030.9915  0.0259 -4.9949
siesta:    2    -1030.7109    -1030.6422    -1030.6422  0.0253 -4.9915
siesta:    3    -1030.6663    -1030.7088    -1030.7088  0.0065 -5.0040
siesta:    4    -1030.6662    -1030.6532    -1030.6532  0.0009 -5.0028

siesta: E_KS(eV) =            -1030.6560

siesta: Atomic forces (eV/Ang):
----------------------------------------
   Tot    0.002547    0.002554    0.002535
----------------------------------------
   Max    0.046505
   Res    0.039866    sqrt( Sum f_i^2 / 3N )
----------------------------------------
   Max    0.046505    constrained

Stress-tensor-Voigt (kbar):        0.63        0.63        0.63        0.24        0.24        0.24
(Free)E + p*V (eV/cell)    -1030.7225
Target enthalpy (eV/cell)    -1030.6560

siesta: Stress tensor (static) (eV/Ang**3):
         0.000395    0.000152    0.000153
         0.000152    0.000395    0.000153
         0.000153    0.000153    0.000395

siesta: Pressure (static):         -0.63335216  kBar

siesta: Stress tensor (total) (eV/Ang**3):
         0.000395    0.000152    0.000153
         0.000152    0.000395    0.000153
         0.000153    0.000153    0.000395

siesta: Pressure (total):         -0.63335216  kBar

mulliken: Mulliken Atomic and Orbital Populations:

Species: Si                  
Atom  Qatom  Qorb
               3s      3s      3py     3pz     3px     3py     3pz     3px     
               3Pdxy   3Pdyz   3Pdz2   3Pdxz   3Pdx2-y2
   1  4.000   0.643   0.570   0.246   0.246   0.246   0.518   0.518   0.518
              0.118   0.118   0.070   0.118   0.070
   2  4.000   0.640   0.571   0.245   0.245   0.245   0.520   0.520   0.520
              0.119   0.119   0.070   0.119   0.070
   3  4.000   0.641   0.571   0.246   0.245   0.246   0.519   0.519   0.519
              0.118   0.118   0.070   0.118   0.070
   4  4.000   0.642   0.570   0.246   0.246   0.246   0.519   0.518   0.519
              0.118   0.118   0.070   0.118   0.070
   5  4.000   0.641   0.571   0.245   0.246   0.246   0.519   0.519   0.519
              0.118   0.118   0.070   0.118   0.070
   6  4.000   0.642   0.570   0.246   0.246   0.246   0.518   0.519   0.519
              0.118   0.118   0.070   0.118   0.070
   7  4.000   0.641   0.571   0.246   0.246   0.245   0.519   0.519   0.519
              0.118   0.118   0.070   0.118   0.070
   8  4.000   0.642   0.570   0.246   0.246   0.246   0.519   0.519   0.518
              0.118   0.118   0.070   0.118   0.070

mulliken: Qtot =       32.000

cgvc: Finished line minimization    2.  Mean atomic displacement =    0.0098

* Maximum dynamic memory allocated =    90 MB

siesta:                 ==============================
                            Begin CG move =      6
                        ==============================

outcoor: Atomic coordinates (Ang):                          
    0.00069488    0.00069553    0.00069603   1       1  Si
    1.38599032    1.38599093    1.38599156   1       2  Si
    2.76784726    2.76784703    0.00350715   1       3  Si
    4.15317741    4.15317748    1.38844280   1       4  Si
    2.76784631    0.00350654    2.76784532   1       5  Si
    4.15317703    1.38844347    4.15317539   1       6  Si
    0.00350578    2.76784614    2.76784537   1       7  Si
    1.38844364    4.15317698    4.15317482   1       8  Si
 Kpoints in:  108 . Kpoints trimmed:  108

siesta: k-grid: Number of k-points =   108
siesta: k-grid: Cutoff (effective) =    16.574 Ang
siesta: k-grid: Supercell and displacements
siesta: k-grid:    0   0   6      0.500
siesta: k-grid:    6   0   0      0.500
siesta: k-grid:    0   6   0      0.500
Naive supercell factors:     5    5    5

superc: Internal auxiliary supercell:     5 x     5 x     5  =     125
superc: Number of atoms, orbitals, and projectors:   1000  13000  16000

outcell: Unit cell vectors (Ang):
        5.524529    0.002586    0.002586
        0.002586    5.524529    0.002586
        0.002586    0.002586    5.524529

outcell: Cell vector modules (Ang)   :    5.524531    5.524531    5.524530
outcell: Cell angles (23,13,12) (deg):     89.9463     89.9463     89.9463
outcell: Cell volume (Ang**3)        :    168.6109
New_DM. Step:     7
Re-using DM from previous geometry...
Re-using DM without extrapolation (not allowed)
Density Matrix sparsity pattern changed.

InitMesh: MESH =    40 x    40 x    40 =       64000
InitMesh: Mesh cutoff (required, used) =   120.000   144.888 Ry

siesta: iscf   Eharris(eV)      E_KS(eV)   FreeEng(eV)   dDmax  Ef(eV)
siesta:    1    -1030.6651    -1030.5917    -1030.5917  0.0026 -4.9829
siesta:    2    -1030.6674    -1030.6626    -1030.6626  0.0068 -4.9852
siesta:    3    -1030.6642    -1030.6391    -1030.6391  0.0019 -4.9839
siesta:    4    -1030.6642    -1030.6635    -1030.6635  0.0002 -4.9842

siesta: E_KS(eV) =            -1030.6640

siesta: Atomic forces (eV/Ang):
----------------------------------------
   Tot   -0.006678   -0.006672   -0.006663
----------------------------------------
   Max    0.072817
   Res    0.051291    sqrt( Sum f_i^2 / 3N )
----------------------------------------
   Max    0.072817    constrained

Stress-tensor-Voigt (kbar):        2.17        2.17        2.17        1.90        1.90        1.90
(Free)E + p*V (eV/cell)    -1030.8921
Target enthalpy (eV/cell)    -1030.6640

siesta: Stress tensor (static) (eV/Ang**3):
         0.001353    0.001184    0.001184
         0.001184    0.001353    0.001184
         0.001184    0.001184    0.001353

siesta: Pressure (static):         -2.16788480  kBar

siesta: Stress tensor (total) (eV/Ang**3):
         0.001353    0.001184    0.001184
         0.001184    0.001353    0.001184
         0.001184    0.001184    0.001353

siesta: Pressure (total):         -2.16788480  kBar

mulliken: Mulliken Atomic and Orbital Populations:

Species: Si                  
Atom  Qatom  Qorb
               3s      3s      3py     3pz     3px     3py     3pz     3px     
               3Pdxy   3Pdyz   3Pdz2   3Pdxz   3Pdx2-y2
   1  4.000   0.640   0.571   0.246   0.246   0.246   0.519   0.519   0.519
              0.118   0.118   0.070   0.118   0.070
   2  4.000   0.649   0.566   0.249   0.249   0.249   0.515   0.515   0.515
              0.118   0.118   0.069   0.118   0.069
   3  4.000   0.646   0.568   0.247   0.250   0.247   0.517   0.516   0.517
              0.118   0.118   0.069   0.118   0.070
   4  4.000   0.643   0.569   0.248   0.245   0.248   0.517   0.519   0.517
              0.118   0.118   0.070   0.118   0.069
   5  4.000   0.646   0.568   0.250   0.247   0.247   0.516   0.517   0.517
              0.118   0.118   0.069   0.118   0.069
   6  4.000   0.643   0.569   0.245   0.248   0.248   0.519   0.517   0.517
              0.118   0.118   0.070   0.118   0.070
   7  4.000   0.646   0.568   0.247   0.247   0.250   0.517   0.517   0.516
              0.118   0.118   0.069   0.118   0.069
   8  4.000   0.643   0.569   0.248   0.248   0.245   0.517   0.517   0.519
              0.118   0.118   0.070   0.118   0.070

mulliken: Qtot =       32.000

* Maximum dynamic memory allocated =    90 MB

siesta:                 ==============================
                            Begin CG move =      7
                        ==============================

outcoor: Atomic coordinates (Ang):                          
    0.00449078    0.00449042    0.00449055   1       1  Si
    1.38462499    1.38462488    1.38462377   1       2  Si
    2.76161110    2.76161124    0.00355683   1       3  Si
    4.14158706    4.14158708    1.38386715   1       4  Si
    2.76161128    0.00355706    2.76161190   1       5  Si
    4.14158748    1.38386800    4.14158717   1       6  Si
    0.00355689    2.76161154    2.76161224   1       7  Si
    1.38386803    4.14158750    4.14158732   1       8  Si
 Kpoints in:  108 . Kpoints trimmed:  108

siesta: k-grid: Number of k-points =   108
siesta: k-grid: Cutoff (effective) =    16.557 Ang
siesta: k-grid: Supercell and displacements
siesta: k-grid:    6   0   0      0.500
siesta: k-grid:    0   6   0      0.500
siesta: k-grid:    0   0   6      0.500
Naive supercell factors:     5    5    5

superc: Internal auxiliary supercell:     5 x     5 x     5  =     125
superc: Number of atoms, orbitals, and projectors:   1000  13000  16000

outcell: Unit cell vectors (Ang):
        5.519138   -0.000866   -0.000866
       -0.000866    5.519138   -0.000866
       -0.000866   -0.000866    5.519138

outcell: Cell vector modules (Ang)   :    5.519138    5.519138    5.519139
outcell: Cell angles (23,13,12) (deg):     90.0180     90.0180     90.0180
outcell: Cell volume (Ang**3)        :    168.1178
New_DM. Step:     8
Re-using DM from previous geometry...
Re-using DM without extrapolation (not allowed)
Density Matrix sparsity pattern changed.

InitMesh: MESH =    40 x    40 x    40 =       64000
InitMesh: Mesh cutoff (required, used) =   120.000   145.171 Ry

siesta: iscf   Eharris(eV)      E_KS(eV)   FreeEng(eV)   dDmax  Ef(eV)
siesta:    1    -1030.6671    -1030.7408    -1030.7408  0.0028 -5.0002
siesta:    2    -1030.6707    -1030.6637    -1030.6637  0.0081 -5.0000
siesta:    3    -1030.6660    -1030.6922    -1030.6922  0.0021 -4.9995
siesta:    4    -1030.6660    -1030.6655    -1030.6655  0.0001 -4.9992

siesta: E_KS(eV) =            -1030.6656

siesta: Atomic forces (eV/Ang):
----------------------------------------
   Tot    0.002105    0.002110    0.002120
----------------------------------------
   Max    0.026759
   Res    0.019076    sqrt( Sum f_i^2 / 3N )
----------------------------------------
   Max    0.026759    constrained

Stress-tensor-Voigt (kbar):       -0.20       -0.20       -0.20        0.05        0.05        0.05
(Free)E + p*V (eV/cell)    -1030.6451
Target enthalpy (eV/cell)    -1030.6656

siesta: Stress tensor (static) (eV/Ang**3):
        -0.000122    0.000032    0.000032
         0.000032   -0.000122    0.000032
         0.000032    0.000032   -0.000122

siesta: Pressure (static):          0.19571540  kBar

siesta: Stress tensor (total) (eV/Ang**3):
        -0.000122    0.000032    0.000032
         0.000032   -0.000122    0.000032
         0.000032    0.000032   -0.000122

siesta: Pressure (total):          0.19571540  kBar

mulliken: Mulliken Atomic and Orbital Populations:

Species: Si                  
Atom  Qatom  Qorb
               3s      3s      3py     3pz     3px     3py     3pz     3px     
               3Pdxy   3Pdyz   3Pdz2   3Pdxz   3Pdx2-y2
   1  4.000   0.645   0.569   0.246   0.246   0.246   0.518   0.518   0.518
              0.118   0.118   0.070   0.118   0.070
   2  4.000   0.639   0.571   0.245   0.245   0.245   0.520   0.520   0.520
              0.119   0.119   0.070   0.119   0.070
   3  4.000   0.641   0.571   0.246   0.244   0.246   0.519   0.520   0.519
              0.118   0.119   0.070   0.119   0.070
   4  4.000   0.643   0.570   0.245   0.247   0.245   0.519   0.518   0.519
              0.118   0.118   0.070   0.118   0.070
   5  4.000   0.641   0.571   0.244   0.246   0.246   0.520   0.519   0.519
              0.119   0.119   0.070   0.118   0.070
   6  4.000   0.643   0.570   0.247   0.245   0.245   0.518   0.519   0.519
              0.118   0.118   0.070   0.118   0.070
   7  4.000   0.641   0.571   0.246   0.246   0.244   0.519   0.519   0.520
              0.119   0.118   0.070   0.119   0.070
   8  4.000   0.643   0.570   0.245   0.245   0.247   0.519   0.519   0.518
              0.118   0.118   0.070   0.118   0.070

mulliken: Qtot =       32.000

* Maximum dynamic memory allocated =    90 MB

outcoor: Relaxed atomic coordinates (Ang):                  
    0.00449078    0.00449042    0.00449055   1       1  Si
    1.38462499    1.38462488    1.38462377   1       2  Si
    2.76161110    2.76161124    0.00355683   1       3  Si
    4.14158706    4.14158708    1.38386715   1       4  Si
    2.76161128    0.00355706    2.76161190   1       5  Si
    4.14158748    1.38386800    4.14158717   1       6  Si
    0.00355689    2.76161154    2.76161224   1       7  Si
    1.38386803    4.14158750    4.14158732   1       8  Si

outcell: Unit cell vectors (Ang):
        5.519138   -0.000866   -0.000866
       -0.000866    5.519138   -0.000866
       -0.000866   -0.000866    5.519138

outcell: Cell vector modules (Ang)   :    5.519138    5.519138    5.519139
outcell: Cell angles (23,13,12) (deg):     90.0180     90.0180     90.0180
outcell: Cell volume (Ang**3)        :    168.1178

coxmol: Writing XMOL coordinates into file si.xyz                                                          
Writing WFSX for selected k-points in si.selected.WFSX

writewave: Wave Functions Coefficients

     Number of k-points =        1
        Number of Spins =        1
   Number of basis orbs =      104


                                                                  ******
            k-point =        1    0.000000  0.000000  0.000000
     Spin component =        1
 Num. wavefunctions =       50
Use readwfsx utility to print wavefunction coefficients from WFSX file
Computing bands...

siesta: Band k vectors (Bohr**-1):
  ik           k
   1    0.306162    0.306162    0.306162
   2    0.293915    0.293915    0.293915
   3    0.281669    0.281669    0.281669
   4    0.269422    0.269422    0.269422
   5    0.257176    0.257176    0.257176
   6    0.244929    0.244929    0.244929
   7    0.232683    0.232683    0.232683
   8    0.220436    0.220436    0.220436
   9    0.208190    0.208190    0.208190
  10    0.195944    0.195944    0.195944
  11    0.183697    0.183697    0.183697
  12    0.171451    0.171451    0.171451
  13    0.159204    0.159204    0.159204
  14    0.146958    0.146958    0.146958
  15    0.134711    0.134711    0.134711
  16    0.122465    0.122465    0.122465
  17    0.110218    0.110218    0.110218
  18    0.097972    0.097972    0.097972
  19    0.085725    0.085725    0.085725
  20    0.073479    0.073479    0.073479
  21    0.061232    0.061232    0.061232
  22    0.048986    0.048986    0.048986
  23    0.036739    0.036739    0.036739
  24    0.024493    0.024493    0.024493
  25    0.012246    0.012246    0.012246
  26    0.000000    0.000000    0.000000
  27    0.020411    0.000000    0.000000
  28    0.040822    0.000000    0.000000
  29    0.061232    0.000000    0.000000
  30    0.081643    0.000000    0.000000
  31    0.102054    0.000000    0.000000
  32    0.122465    0.000000    0.000000
  33    0.142876    0.000000    0.000000
  34    0.163286    0.000000    0.000000
  35    0.183697    0.000000    0.000000
  36    0.204108    0.000000    0.000000
  37    0.224519    0.000000    0.000000
  38    0.244929    0.000000    0.000000
  39    0.265340    0.000000    0.000000
  40    0.285751    0.000000    0.000000
  41    0.306162    0.000000    0.000000
  42    0.326573    0.000000    0.000000
  43    0.346983    0.000000    0.000000
  44    0.367394    0.000000    0.000000
  45    0.387805    0.000000    0.000000
  46    0.408216    0.000000    0.000000
  47    0.428627    0.000000    0.000000
  48    0.449037    0.000000    0.000000
  49    0.469448    0.000000    0.000000
  50    0.489859    0.000000    0.000000
  51    0.510270    0.000000    0.000000
  52    0.530680    0.000000    0.000000
  53    0.551091    0.000000    0.000000
  54    0.571502    0.000000    0.000000
  55    0.591913    0.000000    0.000000
  56    0.612324    0.000000    0.000000
  57    0.612324    0.015308    0.015308
  58    0.612324    0.030616    0.030616
  59    0.612324    0.045924    0.045924
  60    0.612324    0.061232    0.061232
  61    0.612324    0.076540    0.076540
  62    0.612324    0.091849    0.091849
  63    0.612324    0.107157    0.107157
  64    0.612324    0.122465    0.122465
  65    0.612324    0.137773    0.137773
  66    0.612324    0.153081    0.153081
  67    0.594829    0.148707    0.148707
  68    0.577334    0.144333    0.144333
  69    0.559839    0.139960    0.139960
  70    0.542344    0.135586    0.135586
  71    0.524849    0.131212    0.131212
  72    0.507354    0.126838    0.126838
  73    0.489859    0.122465    0.122465
  74    0.472364    0.118091    0.118091
  75    0.454869    0.113717    0.113717
  76    0.437374    0.109344    0.109344
  77    0.419879    0.104970    0.104970
  78    0.402384    0.100596    0.100596
  79    0.384889    0.096222    0.096222
  80    0.367394    0.091849    0.091849
  81    0.349899    0.087475    0.087475
  82    0.332404    0.083101    0.083101
  83    0.314909    0.078727    0.078727
  84    0.297414    0.074354    0.074354
  85    0.279919    0.069980    0.069980
  86    0.262424    0.065606    0.065606
  87    0.244929    0.061232    0.061232
  88    0.227434    0.056859    0.056859
  89    0.209940    0.052485    0.052485
  90    0.192445    0.048111    0.048111
  91    0.174950    0.043737    0.043737
  92    0.157455    0.039364    0.039364
  93    0.139960    0.034990    0.034990
  94    0.122465    0.030616    0.030616
  95    0.104970    0.026242    0.026242
  96    0.087475    0.021869    0.021869
  97    0.069980    0.017495    0.017495
  98    0.052485    0.013121    0.013121
  99    0.034990    0.008747    0.008747
 100    0.017495    0.004374    0.004374
 101    0.000000    0.000000    0.000000

siesta: Band energies (eV):
  ik is    eps
   1  1 -14.87 -14.86 -14.86 -14.85 -12.20 -12.20 -12.20 -12.19  -6.61  -6.61
         -6.60  -6.60  -6.60  -6.59  -6.59  -6.59  -4.00  -3.99  -3.99  -3.99
         -1.95  -1.95  -1.94  -1.94  -1.94  -1.93  -1.93  -1.93   3.49   3.52
          3.52   3.53   5.51   5.51   5.51   5.54   5.54   5.59   5.59   5.59
          5.93   5.96   5.96   5.96   6.05   6.05   6.05   6.12   6.12   6.13
          6.13   6.13   8.37   8.37   8.37   8.37  16.43  16.43  16.43  16.43
         17.38  17.38  17.39  17.40  17.40  17.40  17.40  17.40  19.38  19.38
         19.39  19.39  19.39  19.40  19.42  19.42  19.94  19.94  19.94  20.01
         28.95  28.95  28.95  28.96  28.96  28.97  28.97  28.97  65.10  65.25
         65.25  65.34  79.47  79.47  79.65  79.84  79.84  79.92  80.23  80.23
        115.93 116.87 116.87 116.94
   2  1 -14.88 -14.86 -14.86 -14.85 -12.20 -12.20 -12.20 -12.18  -6.61  -6.61
         -6.60  -6.60  -6.60  -6.60  -6.59  -6.59  -4.00  -3.98  -3.98  -3.98
         -1.95  -1.95  -1.94  -1.94  -1.94  -1.93  -1.92  -1.92   3.49   3.51
          3.51   3.53   5.43   5.43   5.43   5.48   5.48   5.58   5.58   5.58
          5.92   5.97   5.97   5.97   6.06   6.06   6.06   6.18   6.18   6.21
          6.21   6.21   8.37   8.37   8.37   8.38  16.42  16.43  16.43  16.43
         17.37  17.37  17.39  17.39  17.39  17.39  17.39  17.39  19.38  19.38
         19.39  19.39  19.39  19.39  19.42  19.42  19.89  19.89  19.89  20.03
         28.94  28.94  28.94  28.96  28.96  28.98  28.98  28.98  64.97  65.23
         65.23  65.28  78.47  78.47  78.53  79.47  79.47  79.52  80.04  80.04
        115.55 116.98 116.98 117.04
   3  1 -14.92 -14.86 -14.86 -14.85 -12.19 -12.19 -12.19 -12.12  -6.70  -6.70
         -6.69  -6.63  -6.63  -6.62  -6.59  -6.59  -3.99  -3.88  -3.88  -3.88
         -1.96  -1.96  -1.96  -1.93  -1.93  -1.88  -1.88  -1.88   3.46   3.47
          3.47   3.50   4.98   4.98   4.98   5.11   5.11   5.56   5.56   5.56
          5.80   6.02   6.02   6.02   6.10   6.10   6.10   6.59   6.59   6.72
          6.72   6.72   8.41   8.41   8.41   8.48  16.31  16.40  16.40  16.40
         17.22  17.22  17.28  17.28  17.28  17.35  17.35  17.35  19.34  19.34
         19.34  19.35  19.35  19.35  19.47  19.47  19.47  19.52  19.52  20.21
         28.81  28.81  28.81  29.01  29.01  29.03  29.03  29.04  63.27  64.47
         64.47  64.48  70.71  70.71  70.72  75.75  75.78  75.78  79.66  79.66
        111.84 114.87 114.87 114.91
   4  1 -15.00 -14.85 -14.85 -14.85 -12.17 -12.16 -12.16 -11.99  -6.85  -6.85
         -6.85  -6.67  -6.67  -6.67  -6.57  -6.57  -3.98  -3.73  -3.73  -3.73
         -1.99  -1.99  -1.99  -1.92  -1.92  -1.80  -1.80  -1.80   3.35   3.36
          3.36   3.47   4.60   4.60   4.60   4.72   4.72   5.52   5.52   5.52
          5.61   6.09   6.09   6.09   6.17   6.17   6.18   7.04   7.04   7.27
          7.27   7.27   8.48   8.48   8.48   8.62  16.14  16.31  16.31  16.31
         16.95  16.95  17.08  17.08  17.08  17.30  17.30  17.30  18.78  18.78
         18.78  19.23  19.23  19.23  19.39  19.39  19.39  19.68  19.68  20.52
         28.56  28.56  28.56  29.10  29.10  29.19  29.19  29.19  59.07  59.07
         59.07  60.14  67.38  67.38  67.39  70.37  70.39  70.39  79.16  79.16
        106.38 106.60 106.60 106.66
   5  1 -15.11 -14.83 -14.83 -14.83 -12.13 -12.13 -12.13 -11.82  -7.05  -7.05
         -7.05  -6.73  -6.73  -6.73  -6.56  -6.56  -3.96  -3.55  -3.55  -3.55
         -2.01  -2.01  -2.01  -1.91  -1.91  -1.68  -1.68  -1.68   3.11   3.11
          3.11   3.42   4.34   4.34   4.35   4.35   4.35   5.39   5.47   5.47
          5.47   6.19   6.19   6.19   6.27   6.27   6.27   7.51   7.51   7.80
          7.80   7.80   8.62   8.62   8.62   8.78  15.96  16.10  16.10  16.10
         16.61  16.61  16.80  16.80  16.80  17.26  17.26  17.26  18.21  18.21
         18.21  19.08  19.08  19.08  19.39  19.39  19.39  19.86  19.86  20.91
         28.20  28.20  28.20  29.23  29.23  29.46  29.46  29.46  52.16  52.16
         52.16  56.03  65.12  65.14  65.14  67.22  67.22  67.23  78.42  78.42
         96.57  96.57  96.58 100.96
   6  1 -15.23 -14.82 -14.82 -14.81 -12.09 -12.09 -12.09 -11.61  -7.28  -7.28
         -7.28  -6.80  -6.80  -6.80  -6.53  -6.53  -3.93  -3.38  -3.38  -3.38
         -2.00  -2.00  -2.00  -1.89  -1.89  -1.52  -1.52  -1.52   2.75   2.75
          2.75   3.34   3.97   3.97   4.25   4.25   4.25   5.18   5.43   5.43
          5.43   6.30   6.30   6.30   6.37   6.37   6.37   7.99   7.99   8.21
          8.21   8.21   8.90   8.91   8.91   8.92  15.76  15.76  15.76  15.82
         16.24  16.24  16.46  16.46  16.46  17.21  17.21  17.21  17.87  17.87
         17.87  18.88  18.88  18.88  19.42  19.42  19.42  20.04  20.04  21.35
         27.72  27.72  27.72  29.38  29.38  29.86  29.86  29.86  46.38  46.38
         46.38  51.59  60.93  60.94  60.94  67.20  67.20  67.21  77.48  77.48
         88.77  88.77  88.78  96.20
   7  1 -15.37 -14.79 -14.79 -14.79 -12.04 -12.04 -12.04 -11.37  -7.51  -7.51
         -7.51  -6.89  -6.89  -6.89  -6.50  -6.50  -3.89  -3.26  -3.26  -3.26
         -1.91  -1.91  -1.91  -1.87  -1.87  -1.33  -1.33  -1.33   2.31   2.31
          2.31   3.22   3.63   3.63   4.24   4.24   4.24   5.00   5.39   5.39
          5.39   6.43   6.43   6.43   6.48   6.48   6.48   8.45   8.45   8.45
          8.47   8.47   8.95   9.41   9.41   9.41  15.36  15.36  15.36  15.73
         15.84  15.84  16.08  16.08  16.08  17.07  17.07  17.07  17.79  17.79
         17.79  18.64  18.64  18.64  19.47  19.47  19.47  20.21  20.21  21.84
         27.15  27.15  27.15  29.56  29.56  30.36  30.36  30.37  41.72  41.72
         41.72  47.38  57.99  58.00  58.00  66.80  66.80  66.81  76.37  76.37
         84.08  84.08  84.08  92.12
   8  1 -15.51 -14.76 -14.76 -14.76 -11.98 -11.98 -11.98 -11.10  -7.75  -7.75
         -7.75  -6.98  -6.98  -6.98  -6.46  -6.46  -3.85  -3.22  -3.22  -3.22
         -1.85  -1.85  -1.74  -1.74  -1.74  -1.12  -1.12  -1.12   1.84   1.84
          1.84   3.05   3.30   3.30   4.28   4.28   4.28   4.87   5.36   5.36
          5.36   6.56   6.56   6.56   6.59   6.59   6.59   8.61   8.62   8.62
          8.93   8.94   8.94  10.00  10.00  10.00  14.94  14.94  14.94  15.44
         15.44  15.68  15.68  15.68  15.71  16.89  16.89  16.89  17.86  17.86
         17.86  18.35  18.36  18.36  19.56  19.56  19.56  20.36  20.36  22.37
         26.51  26.51  26.51  29.75  29.75  30.94  30.94  30.94  38.02  38.02
         38.02  43.74  56.18  56.18  56.18  65.90  65.90  65.91  75.18  75.19
         81.87  81.87  81.87  88.46
   9  1 -15.66 -14.73 -14.73 -14.73 -11.92 -11.92 -11.92 -10.82  -7.98  -7.98
         -7.98  -7.08  -7.08  -7.08  -6.42  -6.42  -3.80  -3.26  -3.26  -3.26
         -1.84  -1.84  -1.47  -1.47  -1.47  -0.87  -0.87  -0.87   1.36   1.36
          1.36   2.83   3.01   3.01   4.35   4.35   4.35   4.81   5.34   5.34
          5.34   6.68   6.68   6.68   6.71   6.71   6.71   8.77   8.77   8.77
          8.82   9.38   9.38  10.62  10.62  10.62  14.54  14.54  14.54  15.06
         15.06  15.27  15.27  15.27  15.75  16.72  16.72  16.72  17.99  17.99
         17.99  18.04  18.04  18.04  19.69  19.69  19.69  20.49  20.49  22.94
         25.84  25.84  25.84  29.96  29.96  31.50  31.50  31.50  35.13  35.13
         35.14  40.76  55.25  55.25  55.25  64.61  64.61  64.62  74.05  74.05
         81.12  81.12  81.12  84.98
  10  1 -15.80 -14.69 -14.69 -14.69 -11.86 -11.86 -11.86 -10.51  -8.21  -8.21
         -8.21  -7.19  -7.18  -7.18  -6.37  -6.37  -3.75  -3.34  -3.34  -3.34
         -1.82  -1.82  -1.15  -1.15  -1.15  -0.61  -0.61  -0.61   0.88   0.88
          0.88   2.57   2.74   2.74   4.43   4.43   4.43   4.81   5.33   5.33
          5.33   6.80   6.80   6.80   6.82   6.82   6.82   8.62   8.94   8.94
          8.94   9.78   9.78  11.22  11.23  11.23  14.13  14.13  14.13  14.74
         14.74  14.85  14.85  14.85  15.84  16.58  16.58  16.58  17.70  17.70
         17.70  18.14  18.14  18.14  19.86  19.86  19.86  20.60  20.60  23.57
         25.16  25.16  25.16  30.18  30.18  31.67  31.67  31.67  33.23  33.23
         33.23  38.43  55.00  55.00  55.00  63.01  63.01  63.02  73.10  73.10
         80.96  80.98  80.98  81.53
  11  1 -15.94 -14.64 -14.64 -14.64 -11.80 -11.80 -11.80 -10.19  -8.41  -8.41
         -8.41  -7.29  -7.29  -7.29  -6.32  -6.32  -3.69  -3.44  -3.44  -3.44
         -1.82  -1.82  -0.80  -0.80  -0.79  -0.32  -0.32  -0.32   0.40   0.40
          0.40   2.28   2.51   2.51   4.52   4.53   4.53   4.85   5.33   5.33
          5.33   6.90   6.90   6.90   6.93   6.93   6.93   8.35   9.13   9.13
          9.13  10.08  10.08  11.81  11.81  11.81  13.72  13.72  13.72  14.44
         14.44  14.44  14.52  14.52  15.96  16.50  16.50  16.50  17.33  17.33
         17.33  18.28  18.28  18.28  20.06  20.06  20.06  20.69  20.69  24.21
         24.48  24.48  24.48  30.40  30.40  30.44  30.44  30.44  33.11  33.11
         33.11  36.68  55.24  55.24  55.24  61.05  61.05  61.05  72.47  72.47
         78.05  80.88  80.89  80.89
  12  1 -16.08 -14.58 -14.58 -14.58 -11.75 -11.75 -11.75  -9.86  -8.59  -8.59
         -8.59  -7.39  -7.39  -7.39  -6.26  -6.26  -3.62  -3.56  -3.56  -3.56
         -1.83  -1.83  -0.41  -0.41  -0.41  -0.08  -0.07  -0.07  -0.01  -0.01
         -0.01   1.97   2.31   2.31   4.62   4.62   4.62   4.92   5.33   5.33
          5.33   6.98   6.98   6.98   7.03   7.03   7.03   8.04   9.36   9.36
          9.36  10.24  10.24  12.36  12.36  12.36  13.31  13.31  13.31  14.03
         14.03  14.03  14.45  14.45  16.11  16.46  16.46  16.46  16.96  16.96
         16.96  18.40  18.40  18.40  20.28  20.28  20.28  20.75  20.75  23.82
         23.82  23.82  24.79  28.99  28.99  28.99  30.65  30.65  33.41  33.41
         33.41  35.51  55.84  55.84  55.84  58.61  58.61  58.61  72.30  72.30
         74.59  80.57  80.58  80.58
  13  1 -16.21 -14.52 -14.52 -14.52 -11.71 -11.71 -11.71  -9.52  -8.74  -8.74
         -8.74  -7.49  -7.49  -7.49  -6.20  -6.20  -3.68  -3.68  -3.68  -3.55
         -1.85  -1.85  -0.54  -0.54  -0.54  -0.01  -0.01  -0.01   0.31   0.31
          0.31   1.64   2.15   2.15   4.72   4.72   4.72   5.01   5.34   5.34
          5.34   7.05   7.05   7.05   7.12   7.12   7.12   7.69   9.65   9.65
          9.65  10.23  10.23  12.66  12.66  12.66  13.11  13.11  13.11  13.62
         13.62  13.62  14.57  14.57  16.27  16.46  16.46  16.46  16.59  16.59
         16.59  18.49  18.49  18.49  20.53  20.53  20.53  20.80  20.80  23.17
         23.17  23.17  25.16  27.74  27.74  27.74  30.93  30.93  33.57  33.57
         33.58  34.94  55.67  55.67  55.67  56.70  56.70  56.70  71.25  72.71
         72.71  79.96  79.97  79.97
  14  1 -16.33 -14.46 -14.46 -14.45 -11.70 -11.70 -11.70  -9.16  -8.85  -8.85
         -8.85  -7.58  -7.58  -7.58  -6.13  -6.13  -3.80  -3.80  -3.80  -3.47
         -1.89  -1.89  -1.00  -1.00  -1.00   0.40   0.40   0.40   0.65   0.65
          0.65   1.31   2.04   2.04   4.82   4.82   4.82   5.10   5.36   5.36
          5.36   7.10   7.10   7.10   7.20   7.20   7.20   7.33   9.98   9.98
          9.98  10.07  10.07  12.32  12.32  12.32  13.20  13.20  13.20  13.52
         13.52  13.52  14.87  14.87  16.24  16.24  16.24  16.45  16.51  16.51
         16.51  18.55  18.55  18.55  20.78  20.78  20.78  20.83  20.83  22.55
         22.55  22.55  25.16  26.68  26.68  26.68  31.24  31.24  33.53  33.53
         33.54  34.97  52.39  52.39  52.39  57.73  57.73  57.73  68.19  73.83
         73.83  79.08  79.08  79.08
  15  1 -16.44 -14.38 -14.38 -14.38 -11.71 -11.71 -11.71  -8.92  -8.92  -8.92
         -8.80  -7.67  -7.67  -7.67  -6.06  -6.06  -3.91  -3.91  -3.91  -3.39
         -1.95  -1.95  -1.44  -1.44  -1.44   0.82   0.82   0.82   0.97   1.00
          1.00   1.00   1.96   1.96   4.91   4.91   4.91   5.17   5.39   5.39
          5.39   7.00   7.13   7.13   7.13   7.27   7.27   7.27   9.79   9.79
         10.36  10.36  10.36  11.88  11.88  11.88  12.76  12.76  12.76  14.00
         14.00  14.00  15.29  15.29  15.92  15.92  15.92  16.57  16.58  16.58
         16.65  18.59  18.59  18.59  20.85  20.85  21.03  21.03  21.03  21.96
         21.96  21.96  24.76  25.80  25.80  25.80  31.58  31.58  33.28  33.28
         33.28  35.50  49.04  49.04  49.04  58.87  58.87  58.87  65.65  75.79
         75.79  77.99  77.99  77.99
  16  1 -16.54 -14.30 -14.30 -14.30 -11.75 -11.75 -11.75  -8.95  -8.95  -8.95
         -8.43  -7.76  -7.76  -7.76  -5.98  -5.98  -4.02  -4.02  -4.02  -3.30
         -2.02  -2.02  -1.86  -1.86  -1.86   0.62   1.24   1.24   1.24   1.36
          1.36   1.36   1.93   1.93   4.99   4.99   4.99   5.20   5.43   5.43
          5.43   6.71   7.15   7.15   7.15   7.32   7.32   7.32   9.44   9.44
         10.74  10.74  10.74  11.47  11.47  11.47  12.30  12.30  12.30  14.45
         14.45  14.45  15.65  15.65  15.65  15.78  15.78  16.67  16.67  16.67
         16.87  18.59  18.59  18.59  20.85  20.85  21.25  21.25  21.25  21.40
         21.40  21.40  24.06  25.05  25.05  25.05  31.95  31.95  32.85  32.86
         32.86  36.23  45.89  45.90  45.90  60.07  60.07  60.07  63.89  76.79
         76.79  76.80  78.75  78.75
  17  1 -16.64 -14.21 -14.21 -14.21 -11.83 -11.83 -11.83  -8.94  -8.94  -8.94
         -8.06  -7.84  -7.83  -7.83  -5.90  -5.90  -4.12  -4.12  -4.12  -3.21
         -2.27  -2.27  -2.27  -2.11  -2.11   0.26   1.67   1.67   1.67   1.73
          1.73   1.73   1.93   1.93   5.08   5.08   5.08   5.16   5.47   5.47
          5.47   6.52   7.16   7.16   7.16   7.35   7.35   7.36   9.07   9.07
         10.76  10.76  10.76  11.46  11.46  11.46  11.81  11.81  11.81  14.87
         14.87  14.87  15.44  15.44  15.44  16.30  16.30  16.78  16.78  16.78
         17.10  18.58  18.58  18.58  20.83  20.83  20.87  20.87  20.87  21.43
         21.43  21.43  23.17  24.42  24.42  24.42  32.30  32.30  32.32  32.36
         32.36  36.81  43.15  43.15  43.15  61.29  61.29  61.29  63.21  75.56
         75.56  75.56  82.84  82.84
  18  1 -16.73 -14.11 -14.11 -14.11 -11.92 -11.92 -11.92  -8.88  -8.88  -8.88
         -7.91  -7.91  -7.91  -7.68  -5.82  -5.82  -4.21  -4.21  -4.21  -3.12
         -2.66  -2.66  -2.66  -2.22  -2.22  -0.10   1.97   1.97   2.09   2.09
          2.09   2.11   2.11   2.11   5.02   5.16   5.16   5.16   5.52   5.52
          5.52   6.44   7.16   7.16   7.16   7.38   7.38   7.38   8.69   8.69
         10.36  10.36  10.36  11.31  11.31  11.31  11.89  11.89  11.89  15.25
         15.25  15.25  15.29  15.29  15.29  16.83  16.83  16.89  16.89  16.89
         17.33  18.55  18.55  18.56  20.36  20.36  20.37  20.80  20.80  21.52
         21.52  21.52  22.21  23.89  23.89  23.89  31.77  31.77  31.77  32.75
         32.75  36.95  40.87  40.87  40.87  62.49  62.50  62.50  63.85  74.33
         74.33  74.33  88.23  88.23
  19  1 -16.80 -14.01 -14.01 -14.01 -12.04 -12.04 -12.04  -8.80  -8.80  -8.80
         -7.97  -7.97  -7.97  -7.30  -5.74  -5.74  -4.29  -4.29  -4.29  -3.04
         -3.02  -3.02  -3.02  -2.32  -2.32  -0.46   2.04   2.04   2.48   2.48
          2.48   2.50   2.50   2.50   4.84   5.24   5.24   5.24   5.58   5.58
          5.58   6.44   7.15   7.15   7.15   7.39   7.39   7.39   8.32   8.32
          9.90   9.90   9.91  10.78  10.78  10.78  12.39  12.39  12.39  15.19
         15.19  15.19  15.57  15.57  15.57  16.99  16.99  16.99  17.33  17.33
         17.54  18.53  18.53  18.53  19.90  19.90  19.90  20.75  20.75  21.29
         21.52  21.52  21.52  23.43  23.43  23.43  31.31  31.31  31.31  33.14
         33.14  36.60  39.04  39.04  39.04  63.66  63.66  63.66  65.87  73.15
         73.15  73.15  95.01  95.01
  20  1 -16.87 -13.90 -13.90 -13.90 -12.18 -12.18 -12.18  -8.69  -8.69  -8.69
         -8.02  -8.02  -8.02  -6.93  -5.66  -5.66  -4.36  -4.36  -4.36  -3.36
         -3.36  -3.36  -2.96  -2.43  -2.43  -0.82   2.12   2.12   2.86   2.86
          2.86   2.90   2.91   2.91   4.66   5.33   5.33   5.33   5.65   5.65
          5.65   6.49   7.14   7.14   7.14   7.39   7.39   7.39   7.96   7.96
          9.45   9.45   9.45  10.26  10.26  10.26  12.90  12.90  12.90  15.15
         15.15  15.15  15.83  15.83  15.83  17.08  17.08  17.08  17.67  17.81
         17.81  18.50  18.50  18.50  19.47  19.47  19.47  20.50  20.69  20.69
         21.42  21.43  21.43  23.04  23.04  23.04  31.03  31.03  31.03  33.50
         33.50  35.93  37.58  37.58  37.58  64.75  64.75  64.75  69.22  72.03
         72.03  72.04 103.15 103.15
  21  1 -16.92 -13.78 -13.78 -13.78 -12.32 -12.32 -12.32  -8.58  -8.58  -8.58
         -8.07  -8.07  -8.07  -6.56  -5.59  -5.59  -4.42  -4.42  -4.42  -3.66
         -3.66  -3.66  -2.88  -2.54  -2.54  -1.17   2.22   2.22   3.22   3.22
          3.22   3.28   3.28   3.28   4.53   5.43   5.43   5.43   5.72   5.72
          5.72   6.55   7.12   7.12   7.12   7.38   7.38   7.38   7.64   7.64
          9.00   9.00   9.00   9.74   9.74   9.74  13.41  13.41  13.41  15.16
         15.16  15.16  16.02  16.02  16.02  17.13  17.14  17.14  17.63  18.24
         18.24  18.46  18.46  18.46  19.07  19.07  19.08  19.97  20.61  20.61
         21.27  21.27  21.27  22.69  22.69  22.69  30.97  30.97  30.97  33.82
         33.82  35.16  36.41  36.41  36.41  65.74  65.74  65.74  71.01  71.01
         71.01  73.98 112.44 112.44
  22  1 -16.97 -13.66 -13.66 -13.66 -12.48 -12.48 -12.48  -8.46  -8.46  -8.46
         -8.11  -8.11  -8.11  -6.21  -5.52  -5.52  -4.47  -4.47  -4.47  -3.93
         -3.93  -3.93  -2.83  -2.63  -2.63  -1.51   2.32   2.32   3.56   3.56
          3.56   3.63   3.63   3.63   4.50   5.54   5.54   5.55   5.80   5.80
          5.80   6.61   7.11   7.11   7.11   7.35   7.35   7.38   7.39   7.39
          8.56   8.56   8.56   9.23   9.23   9.23  13.92  13.92  13.92  15.19
         15.19  15.19  16.15  16.15  16.15  17.15  17.15  17.15  17.37  18.38
         18.38  18.38  18.64  18.64  18.73  18.73  18.73  19.76  20.51  20.51
         21.14  21.14  21.14  22.38  22.38  22.38  31.11  31.11  31.11  34.09
         34.09  34.52  35.46  35.46  35.46  66.60  66.60  66.60  70.10  70.10
         70.10  80.62 122.35 122.35
  23  1 -17.00 -13.52 -13.52 -13.52 -12.63 -12.63 -12.63  -8.35  -8.35  -8.35
         -8.14  -8.14  -8.14  -5.89  -5.46  -5.46  -4.51  -4.51  -4.51  -4.16
         -4.16  -4.16  -2.79  -2.71  -2.71  -1.80   2.42   2.42   3.86   3.86
          3.86   3.92   3.92   3.92   4.60   5.69   5.69   5.69   5.89   5.89
          5.89   6.67   7.11   7.11   7.11   7.11   7.11   7.40   7.40   7.40
          8.15   8.15   8.15   8.76   8.76   8.76  14.41  14.41  14.41  15.25
         15.25  15.25  16.24  16.24  16.24  16.99  17.10  17.10  17.10  18.26
         18.26  18.26  18.44  18.44  18.44  18.99  18.99  19.77  20.38  20.38
         21.07  21.07  21.07  22.10  22.10  22.10  31.41  31.41  31.41  34.18
         34.30  34.30  34.67  34.67  34.67  67.30  67.31  67.31  69.33  69.33
         69.34  90.62 132.00 132.00
  24  1 -17.02 -13.39 -13.39 -13.39 -12.79 -12.79 -12.79  -8.26  -8.26  -8.26
         -8.16  -8.16  -8.16  -5.62  -5.41  -5.41  -4.53  -4.53  -4.53  -4.33
         -4.33  -4.33  -2.79  -2.78  -2.78  -2.03   2.50   2.50   4.10   4.10
          4.10   4.13   4.13   4.13   4.85   5.86   5.86   5.86   5.98   5.98
          5.98   6.72   6.93   6.93   7.11   7.11   7.11   7.44   7.44   7.44
          7.76   7.76   7.76   8.33   8.33   8.33  14.86  14.86  14.86  15.31
         15.31  15.31  16.30  16.30  16.30  16.65  16.95  16.95  16.95  18.13
         18.13  18.13  18.21  18.21  18.21  19.30  19.30  19.86  20.24  20.24
         21.11  21.11  21.11  21.84  21.84  21.84  31.82  31.83  31.83  33.98
         33.98  33.98  34.21  34.45  34.45  67.83  67.83  67.83  68.75  68.75
         68.75 106.89 140.24 140.24
  25  1 -17.03 -13.24 -13.24 -13.24 -12.94 -12.94 -12.94  -8.20  -8.20  -8.20
         -8.18  -8.18  -8.18  -5.43  -5.39  -5.39  -4.54  -4.53  -4.53  -4.45
         -4.45  -4.45  -2.82  -2.82  -2.81  -2.16   2.55   2.55   4.25   4.25
          4.26   4.26   4.26   4.26   5.16   6.02   6.02   6.02   6.06   6.06
          6.06   6.75   6.82   6.82   7.14   7.14   7.14   7.45   7.45   7.45
          7.53   7.53   7.53   7.98   7.98   7.98  15.22  15.22  15.22  15.35
         15.35  15.35  16.37  16.37  16.37  16.42  16.73  16.73  16.73  18.04
         18.04  18.04  18.07  18.07  18.07  19.56  19.56  19.94  20.07  20.07
         21.23  21.23  21.23  21.61  21.61  21.61  32.30  32.30  32.30  33.38
         33.38  33.38  34.49  34.55  34.55  68.14  68.14  68.15  68.39  68.40
         68.40 131.16 145.83 145.83
  26  1 -17.03 -13.10 -13.10 -13.10 -13.09 -13.09 -13.09  -8.18  -8.18  -8.18
         -8.17  -8.17  -8.17  -5.38  -5.38  -5.36  -4.52  -4.52  -4.52  -4.51
         -4.51  -4.50  -2.83  -2.83  -2.83  -2.20   2.57   2.57   4.30   4.30
          4.31   4.31   4.31   4.31   5.31   6.08   6.08   6.09   6.09   6.10
          6.10   6.77   6.78   6.78   7.23   7.23   7.23   7.24   7.24   7.24
          7.70   7.70   7.70   7.71   7.71   7.71  15.36  15.36  15.37  15.38
         15.38  15.38  16.34  16.50  16.50  16.50  16.51  16.51  16.52  18.01
         18.01  18.01  18.02  18.02  18.02  19.71  19.71  19.96  19.96  19.97
         21.39  21.40  21.40  21.41  21.41  21.41  32.80  32.81  32.81  32.83
         32.83  32.84  34.58  34.58  34.66  68.19  68.19  68.26  68.26  68.33
         68.33 147.00 147.81 147.81
  27  1 -17.03 -13.34 -13.10 -13.10 -13.09 -13.09 -12.84  -8.19  -8.19  -8.19
         -8.19  -8.18  -8.17  -5.41  -5.40  -5.39  -4.57  -4.49  -4.49  -4.48
         -4.48  -4.44  -2.84  -2.80  -2.80  -2.17   2.53   2.58   4.24   4.24
          4.27   4.27   4.28   4.28   5.17   5.99   5.99   6.00   6.00   6.16
          6.16   6.78   6.78   6.82   6.98   7.30   7.31   7.31   7.31   7.35
          7.46   7.77   7.77   7.78   7.78   8.08  15.27  15.27  15.30  15.30
         15.31  15.31  16.18  16.41  16.58  16.58  16.59  16.59  16.80  18.00
         18.00  18.01  18.02  18.13  18.13  19.51  19.67  19.92  19.92  20.18
         21.12  21.40  21.40  21.41  21.41  21.76  31.98  32.81  32.81  32.83
         32.83  33.77  34.33  34.38  34.89  68.17  68.17  68.28  68.28  68.35
         68.36 136.70 142.71 143.19
  28  1 -17.02 -13.58 -13.09 -13.09 -13.09 -13.09 -12.58  -8.23  -8.23  -8.23
         -8.23  -8.16  -8.16  -5.52  -5.46  -5.45  -4.62  -4.42  -4.42  -4.40
         -4.40  -4.36  -2.88  -2.72  -2.72  -2.06   2.42   2.59   4.07   4.07
          4.16   4.16   4.17   4.17   4.85   5.78   5.78   5.79   5.79   6.34
          6.34   6.70   6.79   6.79   6.96   7.00   7.40   7.40   7.41   7.41
          7.66   8.02   8.02   8.03   8.03   8.47  15.01  15.01  15.12  15.12
         15.14  15.14  15.84  16.63  16.77  16.77  16.78  16.78  17.02  17.99
         17.99  18.00  18.00  18.42  18.43  19.25  19.58  19.78  19.79  20.50
         20.97  21.41  21.41  21.42  21.42  22.18  31.24  32.82  32.82  32.85
         32.85  33.62  33.68  34.83  35.77  67.98  67.99  68.41  68.42  68.49
         68.49 116.27 131.55 131.94
  29  1 -17.00 -13.82 -13.09 -13.09 -13.08 -13.08 -12.32  -8.30  -8.30  -8.29
         -8.29  -8.14  -8.13  -5.69  -5.56  -5.55  -4.65  -4.29  -4.29  -4.28
         -4.28  -4.26  -2.93  -2.60  -2.60  -1.91   2.25   2.62   3.84   3.84
          3.96   3.96   3.97   3.97   4.56   5.58   5.58   5.59   5.59   6.41
          6.59   6.59   6.67   6.81   6.81   7.18   7.45   7.45   7.45   7.45
          7.83   8.40   8.40   8.41   8.41   8.87  14.66  14.66  14.91  14.91
         14.92  14.92  15.48  16.99  17.01  17.02  17.03  17.03  17.17  17.95
         17.95  17.96  17.96  18.84  18.84  19.00  19.42  19.56  19.56  20.83
         20.96  21.43  21.43  21.44  21.44  22.63  30.59  32.60  32.65  32.90
         32.90  32.93  32.93  36.03  37.40  67.68  67.69  68.66  68.67  68.73
         68.74  98.95 118.67 118.96
  30  1 -16.97 -14.05 -13.08 -13.08 -13.07 -13.07 -12.05  -8.38  -8.38  -8.37
         -8.37  -8.11  -8.10  -5.89  -5.68  -5.67  -4.67  -4.16  -4.13  -4.12
         -4.11  -4.11  -3.00  -2.44  -2.44  -1.73   2.04   2.66   3.57   3.57
          3.68   3.68   3.69   3.69   4.38   5.43   5.44   5.45   5.45   6.10
          6.35   6.84   6.85   6.88   6.88   7.45   7.47   7.48   7.48   7.48
          7.96   8.85   8.85   8.87   8.87   9.28  14.27  14.27  14.68  14.68
         14.69  14.69  15.11  17.21  17.28  17.28  17.29  17.29  17.46  17.89
         17.90  17.90  17.91  18.76  19.20  19.23  19.23  19.32  19.32  21.14
         21.14  21.47  21.47  21.47  21.47  23.11  30.02  31.42  31.46  33.13
         33.13  33.16  33.16  37.39  40.03  67.31  67.32  69.04  69.04  69.10
[...]
         10.58  11.01  11.11  11.35  11.46  11.79  12.10  12.41  13.04  13.32
         14.04  14.21  14.48  14.52  14.70  15.54  15.89  16.17  16.41  17.05
         17.65  17.76  18.63  18.82  19.44  20.64  21.73  22.28  22.68  23.13
         23.29  23.61  24.59  24.97  26.13  26.36  31.66  36.15  37.52  39.61
         41.48  50.15  52.08  53.59  55.31  64.22  64.48  64.63  66.82  70.92
         76.16  86.92  94.15  95.38
  93  1 -16.06 -15.41 -14.29 -13.96 -12.12 -11.75 -10.35  -9.48  -9.35  -9.18
         -8.18  -7.94  -7.75  -7.51  -7.27  -6.37  -3.21  -3.17  -2.76  -2.11
         -2.00  -1.60  -1.58  -0.84  -0.83  -0.63  -0.37  -0.28   0.62   0.69
          1.26   2.05   2.08   2.08   2.72   3.55   4.03   4.04   4.67   5.69
          5.81   5.85   7.71   7.85   8.34   8.47   9.03   9.40   9.50  10.25
         10.59  11.02  11.11  11.35  11.46  11.78  12.11  12.41  13.05  13.33
         14.05  14.23  14.48  14.52  14.69  15.52  15.87  16.17  16.41  17.05
         17.65  17.76  18.62  18.81  19.44  20.63  21.73  22.28  22.68  23.13
         23.29  23.62  24.60  24.96  26.13  26.34  31.62  36.12  37.51  39.64
         41.44  50.18  52.13  53.65  55.31  64.17  64.46  64.63  66.78  70.92
         76.09  86.90  94.11  95.40
  94  1 -15.86 -15.24 -14.36 -14.36 -12.02 -12.02 -10.99 -10.19  -8.78  -8.77
         -7.78  -7.49  -7.49  -7.19  -6.69  -6.67  -3.32  -3.19  -2.96  -2.96
         -2.08  -1.42  -1.42  -1.28  -1.21  -0.47  -0.24   0.48   0.49   0.69
          0.94   0.94   2.90   2.90   3.29   3.41   5.00   5.11   5.16   5.48
          5.50   5.50   6.50   6.50   7.29   8.32   8.94   9.16   9.16   9.21
          9.49   9.49  11.11  11.43  11.43  11.83  13.16  13.36  13.51  13.51
         13.58  14.60  15.01  15.01  16.08  16.08  16.34  16.45  17.21  17.37
         17.37  17.93  17.93  19.13  19.25  19.25  20.74  21.89  22.00  23.67
         24.47  24.47  25.14  27.02  27.56  27.56  31.83  32.75  35.25  35.25
         41.10  48.94  54.54  54.55  57.68  59.74  63.59  65.53  65.53  68.40
         83.90  88.03  88.03  94.35
  95  1 -15.47 -14.94 -14.94 -14.60 -12.03 -11.64 -11.64 -11.01  -8.32  -7.91
         -7.91  -7.22  -6.97  -6.93  -6.92  -6.39  -3.32  -3.19  -2.86  -2.86
         -2.08  -2.08  -1.77  -1.72  -1.30  -0.94  -0.82  -0.82   1.45   1.45
          2.20   2.41   2.60   3.23   3.59   4.05   4.05   4.42   4.42   4.77
          5.23   7.04   7.04   7.18   7.18   7.83   8.12   8.63   8.94   8.94
          8.99   9.33   9.37  10.10  10.55  10.55  13.86  14.09  14.09  15.07
         15.08  15.13  15.48  15.64  15.79  16.00  16.42  16.42  17.59  18.37
         18.37  18.40  18.93  18.93  19.37  19.67  20.46  20.46  21.10  21.55
         26.85  26.97  26.97  28.35  28.64  32.17  32.17  34.23  38.74  39.70
         39.70  45.86  54.84  54.84  58.50  59.18  60.75  73.19  73.20  78.44
         84.40  84.41  85.08 105.07
  96  1 -15.47 -14.95 -14.94 -14.60 -12.03 -11.65 -11.64 -11.02  -8.32  -7.92
         -7.91  -7.22  -6.96  -6.94  -6.92  -6.38  -3.31  -3.18  -2.87  -2.86
         -2.09  -2.08  -1.77  -1.71  -1.31  -0.94  -0.83  -0.82   1.43   1.44
          2.20   2.41   2.59   3.24   3.60   4.05   4.06   4.42   4.43   4.77
          5.22   7.04   7.06   7.19   7.19   7.83   8.12   8.64   8.94   8.94
          8.99   9.33   9.36  10.09  10.53  10.55  13.85  14.10  14.10  15.07
         15.08  15.12  15.47  15.62  15.79  16.00  16.43  16.45  17.59  18.34
         18.37  18.41  18.93  18.94  19.36  19.68  20.46  20.47  21.10  21.54
         26.86  26.95  26.98  28.37  28.63  32.17  32.18  34.24  38.77  39.67
         39.73  45.87  54.72  54.86  58.55  59.19  60.84  73.24  73.25  78.42
         84.41  84.45  85.06 105.53
  97  1 -15.47 -14.94 -14.94 -14.60 -12.03 -11.64 -11.64 -11.02  -8.33  -7.92
         -7.92  -7.21  -6.97  -6.92  -6.92  -6.39  -3.31  -3.19  -2.86  -2.86
         -2.08  -2.08  -1.77  -1.72  -1.31  -0.94  -0.83  -0.83   1.43   1.43
          2.19   2.41   2.60   3.24   3.60   4.06   4.06   4.43   4.43   4.78
          5.23   7.05   7.05   7.18   7.18   7.82   8.12   8.65   8.94   8.95
          8.98   9.32   9.37  10.09  10.53  10.53  13.85  14.09  14.09  15.06
         15.06  15.13  15.47  15.64  15.79  16.00  16.44  16.44  17.60  18.36
         18.36  18.41  18.93  18.93  19.37  19.67  20.47  20.47  21.11  21.54
         26.85  26.97  26.97  28.39  28.61  32.18  32.18  34.25  38.74  39.73
         39.73  45.84  54.89  54.90  58.54  59.16  60.79  73.23  73.23  78.49
         84.47  84.47  85.06 105.37
  98  1 -15.64 -15.04 -15.04 -14.53 -11.63 -11.01 -11.01 -10.22  -9.28  -8.80
         -8.80  -8.21  -7.09  -7.01  -7.01  -6.32  -3.30  -2.68  -2.42  -2.42
         -1.73  -1.73  -1.39  -1.17  -0.11  -0.11  -0.09   0.08   0.44   0.44
          0.70   1.23   1.73   2.15   2.48   2.74   2.74   4.24   4.24   5.37
          5.77   7.64   7.64   8.18   8.74   8.74   9.37   9.68   9.89  10.02
         10.02  10.70  11.10  11.71  11.71  12.03  12.72  12.87  12.87  12.89
         13.47  13.76  13.76  14.42  14.90  15.13  15.13  15.54  17.40  18.17
         18.17  19.20  19.81  19.94  19.94  20.41  21.51  21.51  21.75  22.31
         25.58  25.59  25.98  25.98  27.61  36.00  36.00  40.36  42.72  42.72
         48.76  52.06  52.06  53.16  57.95  59.62  60.72  68.77  68.78  78.75
         79.21  81.36  81.37  97.39
  99  1 -15.64 -15.04 -15.04 -14.53 -11.63 -11.01 -11.01 -10.22  -9.28  -8.80
         -8.80  -8.22  -7.09  -7.01  -7.01  -6.32  -3.30  -2.69  -2.42  -2.42
         -1.74  -1.74  -1.40  -1.17  -0.10  -0.10  -0.09   0.09   0.45   0.45
          0.71   1.24   1.72   2.15   2.48   2.73   2.73   4.24   4.24   5.37
          5.77   7.64   7.64   8.17   8.73   8.73   9.38   9.69   9.90  10.01
         10.01  10.69  11.08  11.72  11.72  12.03  12.73  12.88  12.88  12.90
         13.48  13.77  13.77  14.41  14.90  15.11  15.11  15.54  17.40  18.17
         18.18  19.19  19.81  19.94  19.94  20.41  21.50  21.50  21.75  22.32
         25.59  25.60  25.98  25.98  27.59  35.99  35.99  40.36  42.68  42.68
         48.74  52.10  52.11  53.14  57.93  59.57  60.79  68.68  68.68  78.76
         79.18  81.33  81.34  97.44
 100  1 -15.47 -14.94 -14.94 -14.60 -12.03 -11.64 -11.64 -11.01  -8.32  -7.91
         -7.91  -7.22  -6.97  -6.93  -6.92  -6.39  -3.32  -3.19  -2.86  -2.86
         -2.08  -2.08  -1.77  -1.72  -1.30  -0.94  -0.82  -0.82   1.45   1.45
          2.20   2.41   2.60   3.23   3.59   4.05   4.05   4.42   4.42   4.77
          5.23   7.04   7.04   7.18   7.18   7.83   8.12   8.63   8.94   8.94
          8.99   9.33   9.37  10.10  10.55  10.55  13.86  14.09  14.09  15.07
         15.08  15.13  15.48  15.64  15.79  16.00  16.42  16.42  17.59  18.37
         18.37  18.40  18.93  18.93  19.37  19.67  20.46  20.46  21.10  21.55
         26.85  26.97  26.97  28.35  28.64  32.17  32.17  34.23  38.74  39.70
         39.70  45.86  54.84  54.84  58.50  59.18  60.75  73.19  73.20  78.44
         84.40  84.41  85.08 105.07
 101  1 -15.17 -14.83 -14.83 -14.82 -12.11 -12.11 -12.11 -11.72  -7.16  -7.16
         -7.16  -6.76  -6.76  -6.76  -6.54  -6.54  -3.94  -3.46  -3.46  -3.46
         -2.01  -2.01  -2.01  -1.90  -1.90  -1.60  -1.60  -1.60   2.94   2.95
          2.95   3.38   4.15   4.15   4.29   4.29   4.29   5.28   5.45   5.45
          5.45   6.24   6.24   6.24   6.32   6.32   6.32   7.75   7.75   8.03
          8.03   8.03   8.74   8.74   8.74   8.84  15.88  15.94  15.94  15.94
         16.43  16.43  16.63  16.63  16.64  17.24  17.24  17.24  18.01  18.01
         18.01  18.98  18.98  18.98  19.40  19.40  19.40  19.95  19.95  21.12
         27.97  27.97  27.97  29.30  29.30  29.65  29.65  29.65  49.14  49.14
         49.14  53.82  62.89  62.90  62.90  67.24  67.24  67.25  77.98  77.98
         92.31  92.31  92.31  98.50
 102  1 -15.17 -14.83 -14.83 -14.82 -12.11 -12.11 -12.10 -11.73  -7.17  -7.17
         -7.16  -6.76  -6.76  -6.76  -6.54  -6.54  -3.93  -3.47  -3.46  -3.46
         -2.01  -2.01  -2.01  -1.90  -1.89  -1.61  -1.61  -1.60   2.93   2.93
          2.94   3.39   4.14   4.15   4.29   4.29   4.30   5.28   5.46   5.46
          5.46   6.24   6.25   6.25   6.32   6.33   6.34   7.73   7.74   8.01
          8.02   8.04   8.73   8.73   8.73   8.84  15.87  15.94  15.94  15.95
         16.42  16.43  16.62  16.63  16.64  17.25  17.25  17.26  18.01  18.01
         18.02  18.97  18.97  18.98  19.40  19.41  19.42  19.95  19.96  21.10
         27.96  27.98  27.98  29.31  29.32  29.63  29.64  29.65  49.07  49.18
         49.19  53.83  62.78  62.99  63.02  67.15  67.18  67.25  78.22  78.41
         92.25  92.32  92.41  98.60
 103  1 -15.47 -14.95 -14.94 -14.60 -12.03 -11.65 -11.64 -11.02  -8.32  -7.92
         -7.91  -7.22  -6.96  -6.94  -6.92  -6.38  -3.31  -3.18  -2.87  -2.86
         -2.09  -2.08  -1.77  -1.71  -1.31  -0.94  -0.83  -0.82   1.43   1.44
          2.20   2.41   2.59   3.24   3.60   4.05   4.06   4.42   4.43   4.77
          5.22   7.04   7.06   7.19   7.19   7.83   8.12   8.64   8.94   8.94
          8.99   9.33   9.36  10.09  10.53  10.55  13.85  14.10  14.10  15.07
         15.08  15.12  15.47  15.62  15.79  16.00  16.43  16.45  17.59  18.34
         18.37  18.41  18.93  18.94  19.36  19.68  20.46  20.47  21.10  21.54
         26.86  26.95  26.98  28.37  28.63  32.17  32.18  34.24  38.77  39.67
         39.73  45.87  54.72  54.86  58.55  59.19  60.84  73.24  73.25  78.42
         84.41  84.45  85.06 105.53
 104  1 -15.64 -15.04 -15.04 -14.53 -11.63 -11.01 -11.01 -10.22  -9.28  -8.80
         -8.80  -8.22  -7.08  -7.03  -7.01  -6.32  -3.30  -2.68  -2.44  -2.42
         -1.74  -1.73  -1.40  -1.16  -0.11  -0.10  -0.09   0.09   0.44   0.44
          0.71   1.24   1.73   2.15   2.47   2.73   2.74   4.25   4.26   5.36
          5.76   7.66   7.66   8.18   8.73   8.74   9.37   9.69   9.90  10.01
         10.02  10.69  11.09  11.72  11.72  12.03  12.72  12.87  12.88  12.89
         13.47  13.76  13.78  14.39  14.90  15.12  15.14  15.53  17.39  18.15
         18.18  19.21  19.82  19.93  19.94  20.41  21.50  21.51  21.76  22.32
         25.59  25.61  25.96  25.98  27.60  35.98  36.00  40.39  42.66  42.70
         48.82  51.99  52.04  53.11  58.01  59.58  60.73  68.73  68.81  78.75
         79.16  81.36  81.42  97.39
 105  1 -15.64 -15.04 -15.04 -14.53 -11.63 -11.01 -11.01 -10.22  -9.28  -8.80
         -8.80  -8.22  -7.08  -7.03  -7.01  -6.32  -3.30  -2.68  -2.44  -2.42
         -1.74  -1.73  -1.40  -1.16  -0.11  -0.10  -0.09   0.09   0.44   0.44
          0.71   1.24   1.73   2.15   2.47   2.73   2.74   4.25   4.26   5.36
          5.76   7.66   7.66   8.18   8.73   8.74   9.37   9.69   9.90  10.01
         10.02  10.69  11.09  11.72  11.72  12.03  12.72  12.87  12.88  12.89
         13.47  13.76  13.78  14.39  14.90  15.12  15.14  15.53  17.39  18.15
         18.18  19.21  19.82  19.93  19.94  20.41  21.50  21.51  21.76  22.32
         25.59  25.61  25.96  25.98  27.60  35.98  36.00  40.39  42.66  42.70
         48.82  51.99  52.04  53.11  58.01  59.58  60.73  68.73  68.81  78.75
         79.16  81.36  81.42  97.39
 106  1 -15.47 -14.95 -14.94 -14.60 -12.03 -11.65 -11.64 -11.02  -8.32  -7.92
         -7.91  -7.22  -6.96  -6.94  -6.92  -6.38  -3.31  -3.18  -2.87  -2.86
         -2.09  -2.08  -1.77  -1.71  -1.31  -0.94  -0.83  -0.82   1.43   1.44
          2.20   2.41   2.59   3.24   3.60   4.05   4.06   4.42   4.43   4.77
          5.22   7.04   7.06   7.19   7.19   7.83   8.12   8.64   8.94   8.94
          8.99   9.33   9.36  10.09  10.53  10.55  13.85  14.10  14.10  15.07
         15.08  15.12  15.47  15.62  15.79  16.00  16.43  16.45  17.59  18.34
         18.37  18.41  18.93  18.94  19.36  19.68  20.46  20.47  21.10  21.54
         26.86  26.95  26.98  28.37  28.63  32.17  32.18  34.24  38.77  39.67
         39.73  45.87  54.72  54.86  58.55  59.19  60.84  73.24  73.25  78.42
         84.41  84.45  85.06 105.53
 107  1 -15.17 -14.83 -14.83 -14.82 -12.11 -12.11 -12.10 -11.73  -7.17  -7.17
         -7.16  -6.76  -6.76  -6.76  -6.54  -6.54  -3.93  -3.47  -3.46  -3.46
         -2.01  -2.01  -2.01  -1.90  -1.89  -1.61  -1.61  -1.60   2.93   2.93
          2.94   3.39   4.14   4.15   4.29   4.29   4.30   5.28   5.46   5.46
          5.46   6.24   6.25   6.25   6.32   6.33   6.34   7.73   7.74   8.01
          8.02   8.04   8.73   8.73   8.73   8.84  15.87  15.94  15.94  15.95
         16.42  16.43  16.62  16.63  16.64  17.25  17.25  17.26  18.01  18.01
         18.02  18.97  18.97  18.98  19.40  19.41  19.42  19.95  19.96  21.10
         27.96  27.98  27.98  29.31  29.32  29.63  29.64  29.65  49.07  49.18
         49.19  53.83  62.78  62.99  63.02  67.15  67.18  67.25  78.22  78.41
         92.25  92.32  92.41  98.60
 108  1 -15.17 -14.83 -14.83 -14.82 -12.11 -12.11 -12.10 -11.73  -7.17  -7.17
         -7.16  -6.76  -6.76  -6.76  -6.54  -6.54  -3.93  -3.47  -3.46  -3.46
         -2.01  -2.01  -2.01  -1.90  -1.89  -1.61  -1.61  -1.60   2.93   2.93
          2.94   3.39   4.14   4.15   4.29   4.29   4.30   5.28   5.46   5.46
          5.46   6.24   6.25   6.25   6.32   6.33   6.34   7.73   7.74   8.01
          8.02   8.04   8.73   8.73   8.73   8.84  15.87  15.94  15.94  15.95
         16.42  16.43  16.62  16.63  16.64  17.25  17.25  17.26  18.01  18.01
         18.02  18.97  18.97  18.98  19.40  19.41  19.42  19.95  19.96  21.10
         27.96  27.98  27.98  29.31  29.32  29.63  29.64  29.65  49.07  49.18
         49.19  53.83  62.78  62.99  63.02  67.15  67.18  67.25  78.22  78.41
         92.25  92.32  92.41  98.60
siesta: Fermi energy =      -4.999156 eV

siesta: Program's energy decomposition (eV):
siesta: Ebs     =      -331.672561
siesta: Eions   =      1510.441798
siesta: Ena     =       471.319531
siesta: Ekin    =       319.294936
siesta: Enl     =       127.055180
siesta: DEna    =         6.629005
siesta: DUscf   =         1.519839
siesta: DUext   =         0.000000
siesta: Exc     =      -446.042301
siesta: eta*DQ  =         0.000000
siesta: Emadel  =         0.000000
siesta: Emeta   =         0.000000
siesta: Emolmec =         0.000000
siesta: Ekinion =         0.000000
siesta: Eharris =     -1030.666047
siesta: Etot    =     -1030.665609
siesta: FreeEng =     -1030.665609

siesta: Final energy (eV):
siesta:  Band Struct. =    -331.672561
siesta:       Kinetic =     319.294936
siesta:       Hartree =      59.905460
siesta:    Ext. field =       0.000000
siesta:   Exch.-corr. =    -446.042301
siesta:  Ion-electron =    -421.920772
siesta:       Ion-ion =    -541.902933
siesta:       Ekinion =       0.000000
siesta:         Total =   -1030.665609

siesta: Stress tensor (static) (eV/Ang**3):
siesta:    -0.000122    0.000032    0.000032
siesta:     0.000032   -0.000122    0.000032
siesta:     0.000032    0.000032   -0.000122

siesta: Constrained stress tensor (static) (eV/Ang**3):
siesta:    -0.000122    0.000032    0.000032
siesta:     0.000032   -0.000122    0.000032
siesta:     0.000032    0.000032   -0.000122

siesta: Cell volume =        168.117830 Ang**3

siesta: Pressure (static):
siesta:                Solid            Molecule  Units
siesta:           0.00000133         -0.00000772  Ry/Bohr**3
siesta:           0.00012215         -0.00070892  eV/Ang**3
siesta:           0.19571540         -1.13582717  kBar
(Free)E+ p_basis*V_orbitals  =       -1021.727878
(Free)Eharris+ p_basis*V_orbitals  =       -1021.728449

* Maximum dynamic memory allocated : Node    0 =    90 MB

* Maximum memory occured during dfscf                         

timer: CPU execution times:
timer:  Routine       Calls   Time/call    Tot.time        %
timer:  siesta            1     765.430     765.430   100.00
timer:  Setup             1       0.165       0.165     0.02
timer:  bands             3       0.498       1.495     0.20
timer:  writewave         3       0.009       0.028     0.00
timer:  KSV_init          1       0.000       0.000     0.00
timer:  IterMD            8      95.459     763.675    99.77
timer:  hsparse           8       0.186       1.491     0.19
timer:  overlap           8       0.138       1.105     0.14
timer:  IterSCF          36      16.616     598.161    78.15
timer:  kinefsm          16       0.131       2.100     0.27
timer:  nlefsm           16       3.491      55.860     7.30
timer:  DHSCF            44      10.891     479.220    62.61
timer:  DHSCF1            8       0.068       0.547     0.07
timer:  DHSCF2            8       4.418      35.344     4.62
timer:  REORD           280       0.000       0.058     0.01
timer:  POISON           52       0.007       0.354     0.05
timer:  DHSCF3           44       8.643     380.285    49.68
timer:  rhoofd           44       4.045     177.960    23.25
timer:  cellXC           44       0.243      10.690     1.40
timer:  vmat             44       4.344     191.156    24.97
timer:  MolMec           16       0.000       0.000     0.00
timer:  diagon           36       6.135     220.844    28.85
timer:  c-eigval       3989       0.015      60.543     7.91
timer:  c-buildHS      3989       0.009      36.361     4.75
timer:  cdiag          7878       0.009      69.649     9.10
timer:  cdiag1         7878       0.001       6.305     0.82
timer:  cdiag2         7878       0.002      19.128     2.50
timer:  cdiag3         7878       0.005      42.905     5.61
timer:  cdiag4         7878       0.000       0.911     0.12
timer:  c-eigvec       3889       0.021      81.066    10.59
timer:  c-buildD       3888       0.021      80.484    10.51
timer:  DHSCF4            8       7.877      63.019     8.23
timer:  dfscf             8       6.902      55.218     7.21
timer:  overfsm           8       0.119       0.948     0.12
timer:  optical           1       0.000       0.000     0.00
  

elaps: ELAPSED times:
elaps:  Routine       Calls   Time/call    Tot.time        %
elaps:  siesta            1     768.047     768.047   100.00
elaps:  Setup             1       0.165       0.165     0.02
elaps:  bands             3       0.499       1.496     0.19
elaps:  writewave         3       0.012       0.037     0.00
elaps:  KSV_init          1       0.000       0.000     0.00
elaps:  IterMD            8      95.779     766.229    99.76
elaps:  hsparse           8       0.186       1.491     0.19
elaps:  overlap           8       0.138       1.106     0.14
elaps:  IterSCF          36      16.682     600.566    78.19
elaps:  kinefsm          16       0.131       2.101     0.27
elaps:  nlefsm           16       3.492      55.869     7.27
elaps:  DHSCF            44      10.893     479.273    62.40
elaps:  DHSCF1            8       0.068       0.547     0.07
elaps:  DHSCF2            8       4.419      35.352     4.60
elaps:  REORD           280       0.000       0.058     0.01
elaps:  POISON           52       0.007       0.354     0.05
elaps:  DHSCF3           44       8.644     380.323    49.52
elaps:  rhoofd           44       4.045     177.979    23.17
elaps:  cellXC           44       0.243      10.691     1.39
elaps:  vmat             44       4.345     191.174    24.89
elaps:  MolMec           16       0.000       0.000     0.00
elaps:  diagon           36       6.137     220.918    28.76
elaps:  c-eigval       3989       0.015      60.545     7.88
elaps:  c-buildHS      3989       0.009      36.396     4.74
elaps:  cdiag          7878       0.009      69.621     9.06
elaps:  cdiag1         7878       0.001       6.320     0.82
elaps:  cdiag2         7878       0.002      19.132     2.49
elaps:  cdiag3         7878       0.005      42.927     5.59
elaps:  cdiag4         7878       0.000       0.905     0.12
elaps:  c-eigvec       3889       0.021      81.071    10.56
elaps:  c-buildD       3888       0.021      80.531    10.49
elaps:  DHSCF4            8       7.878      63.027     8.21
elaps:  dfscf             8       6.903      55.224     7.19
elaps:  overfsm           8       0.119       0.948     0.12
elaps:  optical           1       0.000       0.000     0.00
  
>> End of run:  13-MAY-2013  10:02:19
