Siesta Version:                                        siesta-3.2
Architecture  : x86_64-unknown-linux-gnu--Gfortran
Compiler flags: gfortran -g -O2
SERIAL version

* Running in serial mode
>> Start of run:  26-APR-2013  13:17:32

                           ***********************       
                           *  WELCOME TO SIESTA  *       
                           ***********************       

reinit: Reading from standard input
************************** Dump of input data file ****************************
# FDF for Adenine geomtry optimization
## Modify all the line with  "?", "xctype" ##
SystemName             Adenine          # Descriptive name of the system
SystemLabel            Adenine.lda.DZP          # Short name for naming files
NumberOfSpecies        3            # Number of species
NumberOfAtoms          15           # Number of atoms
##Basis set Defenition##
PAO.BasisType          split        # Type of PAO basis set
PAO.EnergyShift        50 meV
PAO.BasisSize          DZP          # (DZP) Double-z + polarization
%block  Chemical_Species_label
       1  7   N
       2  6   C
       3  1   H
%endblock Chemical_Species_label
MeshCutoff            130. Ry        # Mesh cutoff. real space mesh (Ry)
#XC functional specs
XC.functional          LDA	    # Local Density Approximation
XC.authors             CA           # Ceperley-Alder
	
## SCF options ##
MaxSCFIterations      100           # Maximum number of SCF iter
DM.MixingWeight       0.1           # New DM amount for next SCF cycle
DM.Tolerance          1.d-4         # Tolerance in maximum difference
                                    # between input and output DM
DM.NumberPulay         3
DM.UseSaveDM          true          # to use continuation files
SaveRho                 true
NeglNonOverlapInt     false         # Neglect non-overlap interactions
SolutionMethod        diagon        # OrderN or Diagon
ElectronicTemperature 300 K         # Temp. for Fermi smearing (Ry)
##Output Specification##
WriteMDhistory         true         # Trajectory information
WriteCoorStep          true
WriteCoorXmol          true
WriteMDXmol            true
##Minimization strategy##
MD.TypeOfRun           CG           # Type of dynamics:
MD.NumCGsteps          600          # Number of CG steps for
                                    #   coordinate optimization
MD.MaxCGDispl          0.2 Bohr     # Maximum atomic displacement
                                    #   in one CG step (Bohr)
MD.MaxForceTol         0.04 eV/Ang  # Tolerance in the maximum
                                    #   atomic force (Ry/Bohr)
##Coordinate data
AtomicCoordinatesFormat  NotScaledCartesianAng   # Format for coordinates
%block AtomicCoordinatesAndAtomicSpecies
   11.54100094    6.31362771    3.45960492   1  N          1
   10.64912161    8.39014580    3.45723428   1  N          2
    7.56179549    8.72186773    3.45660473   1  N          3
    7.51677522    6.40414925    3.46142484   1  N          4
    9.47608980    4.98939922    3.46149595   1  N          5
   11.76189822    7.67603301    3.46074476   2  C          6
    9.64861115    7.44720159    3.45786587   2  C          7
    8.23094583    7.54071849    3.45449535   2  C          8
    8.15660838    5.22417047    3.46779741   2  C          9
   10.17309133    6.13279984    3.45944364   2  C         10
   12.23801595    5.56025582    3.46916130   3  H         11
   12.78939234    8.09812215    3.47249939   3  H         12
    6.53979852    8.68942868    3.40251529   3  H         13
    8.07666182    9.60511041    3.40154388   3  H         14
    7.49916097    4.32121097    3.48644516   3  H         15
%endblock  AtomicCoordinatesAndAtomicSpecies
%block ExternalElectricField
0.0000 0.000 0.0000 V/Ang
%endblock ExternalElectricField
************************** End of input data file *****************************

reinit: -----------------------------------------------------------------------
reinit: System Name: Adenine
reinit: -----------------------------------------------------------------------
reinit: System Label: Adenine.lda.DZP                                             
reinit: -----------------------------------------------------------------------

initatom: Reading input for the pseudopotentials and atomic orbitals ----------
 Species number:            1  Label: N Atomic number:           7
 Species number:            2  Label: C Atomic number:           6
 Species number:            3  Label: H Atomic number:           1
Ground state valence configuration:   2s02  2p03
Reading pseudopotential information in formatted form from N.psf

Valence configuration for pseudopotential generation:
2s( 2.00) rc: 1.48
2p( 3.00) rc: 1.48
3d( 0.00) rc: 1.48
4f( 0.00) rc: 1.48
Ground state valence configuration:   2s02  2p02
Reading pseudopotential information in formatted form from C.psf

Valence configuration for pseudopotential generation:
2s( 2.00) rc: 1.54
2p( 2.00) rc: 1.54
3d( 0.00) rc: 1.54
4f( 0.00) rc: 1.54
Ground state valence configuration:   1s01
Reading pseudopotential information in formatted form from H.psf

Valence configuration for pseudopotential generation:
1s( 1.00) rc: 1.31
2p( 0.00) rc: 1.31
3d( 0.00) rc: 0.37
4f( 0.00) rc: 1.31
For N, standard SIESTA heuristics set lmxkb to 3
 (one more than the basis l, including polarization orbitals).
Use PS.lmax or PS.KBprojectors blocks to override.
For C, standard SIESTA heuristics set lmxkb to 3
 (one more than the basis l, including polarization orbitals).
Use PS.lmax or PS.KBprojectors blocks to override.
For H, standard SIESTA heuristics set lmxkb to 2
 (one more than the basis l, including polarization orbitals).
Use PS.lmax or PS.KBprojectors blocks to override.

<basis_specs>
===============================================================================
N                    Z=   7    Mass=  14.010        Charge= 0.17977+309
Lmxo=1 Lmxkb= 3    BasisType=split      Semic=F
L=0  Nsemic=0  Cnfigmx=2
          n=1  nzeta=2  polorb=0
            splnorm:   0.15000    
               vcte:    0.0000    
               rinn:    0.0000    
                rcs:    0.0000      0.0000    
            lambdas:    1.0000      1.0000    
L=1  Nsemic=0  Cnfigmx=2
          n=1  nzeta=2  polorb=1
            splnorm:   0.15000    
               vcte:    0.0000    
               rinn:    0.0000    
                rcs:    0.0000      0.0000    
            lambdas:    1.0000      1.0000    
-------------------------------------------------------------------------------
L=0  Nkbl=1  erefs: 0.17977+309
L=1  Nkbl=1  erefs: 0.17977+309
L=2  Nkbl=1  erefs: 0.17977+309
L=3  Nkbl=1  erefs: 0.17977+309
===============================================================================
</basis_specs>

atom: Called for N                     (Z =   7)

read_vps: Pseudopotential generation method:
read_vps: ATM3      Troullier-Martins                       
Total valence charge:    5.00000

xc_check: Exchange-correlation functional:
xc_check: Ceperley-Alder
V l=0 = -2*Zval/r beyond r=  1.4606
V l=1 = -2*Zval/r beyond r=  1.4606
V l=2 = -2*Zval/r beyond r=  1.4606
V l=3 = -2*Zval/r beyond r=  1.4606
All V_l potentials equal beyond r=  1.4606
This should be close to max(r_c) in ps generation
All pots = -2*Zval/r beyond r=  1.4606

VLOCAL1: 99.0% of the norm of Vloc inside     20.347 Ry
VLOCAL1: 99.9% of the norm of Vloc inside     46.372 Ry
atom: Maximum radius for 4*pi*r*r*local-pseudopot. charge    1.76189
atom: Maximum radius for r*vlocal+2*Zval:    1.53550
GHOST: No ghost state for L =  0
GHOST: No ghost state for L =  1
GHOST: No ghost state for L =  2
GHOST: No ghost state for L =  3

KBgen: Kleinman-Bylander projectors: 
   l= 0   rc=  1.634559   el= -1.352239   Ekb=  4.901185   kbcos=  0.337501
   l= 1   rc=  1.614250   el= -0.532623   Ekb= -5.544141   kbcos= -0.433040
   l= 2   rc=  1.740002   el=  0.002346   Ekb= -1.331777   kbcos= -0.007563
   l= 3   rc=  1.806505   el=  0.003449   Ekb= -0.515466   kbcos= -0.000994

KBgen: Total number of  Kleinman-Bylander projectors:   16
atom: -------------------------------------------------------------------------

atom: SANKEY-TYPE ORBITALS:
atom: Selected multiple-zeta basis: split     

SPLIT: Orbitals with angular momentum L= 0

SPLIT: Basis orbitals for state 2s

SPLIT: PAO cut-off radius determined from an
SPLIT: energy shift=  0.003675 Ry

   izeta = 1
                 lambda =    1.000000
                     rc =    4.499702
                 energy =   -1.349164
                kinetic =    1.137567
    potential(screened) =   -2.486730
       potential(ionic) =   -8.018725

   izeta = 2
                 rmatch =    2.978652
              splitnorm =    0.150000
                 energy =   -1.177701
                kinetic =    1.730004
    potential(screened) =   -2.907705
       potential(ionic) =   -8.863598

SPLIT: Orbitals with angular momentum L= 1

SPLIT: Basis orbitals for state 2p

SPLIT: PAO cut-off radius determined from an
SPLIT: energy shift=  0.003675 Ry

   izeta = 1
                 lambda =    1.000000
                     rc =    5.496027
                 energy =   -0.529223
                kinetic =    3.403635
    potential(screened) =   -3.932858
       potential(ionic) =   -9.260801

   izeta = 2
                 rmatch =    3.131389
              splitnorm =    0.150000
                 energy =   -0.349541
                kinetic =    5.052123
    potential(screened) =   -5.401663
       potential(ionic) =  -11.367879

POLgen: Perturbative polarization orbital with L=  2

POLgen: Polarization orbital for state 2p

   izeta = 1
                     rc =    5.496027
                 energy =    1.482192
                kinetic =    3.055334
    potential(screened) =   -1.573142
       potential(ionic) =   -5.768774
atom: Total number of Sankey-type orbitals: 13

atm_pop: Valence configuration (for local Pseudopot. screening):
 2s( 2.00)                                                            
 2p( 3.00)                                                            
Vna: chval, zval:    5.00000   5.00000

Vna:  Cut-off radius for the neutral-atom potential:   5.496027

atom: _________________________________________________________________________

<basis_specs>
===============================================================================
C                    Z=   6    Mass=  12.010        Charge= 0.17977+309
Lmxo=1 Lmxkb= 3    BasisType=split      Semic=F
L=0  Nsemic=0  Cnfigmx=2
          n=1  nzeta=2  polorb=0
            splnorm:   0.15000    
               vcte:    0.0000    
               rinn:    0.0000    
                rcs:    0.0000      0.0000    
            lambdas:    1.0000      1.0000    
L=1  Nsemic=0  Cnfigmx=2
          n=1  nzeta=2  polorb=1
            splnorm:   0.15000    
               vcte:    0.0000    
               rinn:    0.0000    
                rcs:    0.0000      0.0000    
            lambdas:    1.0000      1.0000    
-------------------------------------------------------------------------------
L=0  Nkbl=1  erefs: 0.17977+309
L=1  Nkbl=1  erefs: 0.17977+309
L=2  Nkbl=1  erefs: 0.17977+309
L=3  Nkbl=1  erefs: 0.17977+309
===============================================================================
</basis_specs>

atom: Called for C                     (Z =   6)

read_vps: Pseudopotential generation method:
read_vps: ATM3      Troullier-Martins                       
Total valence charge:    4.00000

xc_check: Exchange-correlation functional:
xc_check: Ceperley-Alder
V l=0 = -2*Zval/r beyond r=  1.5227
V l=1 = -2*Zval/r beyond r=  1.5227
V l=2 = -2*Zval/r beyond r=  1.5227
V l=3 = -2*Zval/r beyond r=  1.5038
All V_l potentials equal beyond r=  1.5227
This should be close to max(r_c) in ps generation
All pots = -2*Zval/r beyond r=  1.5227

VLOCAL1: 99.0% of the norm of Vloc inside     18.722 Ry
VLOCAL1: 99.9% of the norm of Vloc inside     42.668 Ry
atom: Maximum radius for 4*pi*r*r*local-pseudopot. charge    1.83678
atom: Maximum radius for r*vlocal+2*Zval:    1.58088
GHOST: No ghost state for L =  0
GHOST: No ghost state for L =  1
GHOST: No ghost state for L =  2
GHOST: No ghost state for L =  3

KBgen: Kleinman-Bylander projectors: 
   l= 0   rc=  1.747182   el= -1.001948   Ekb=  4.950286   kbcos=  0.319819
   l= 1   rc=  1.747182   el= -0.398598   Ekb= -4.108613   kbcos= -0.367053
   l= 2   rc=  1.930978   el=  0.002326   Ekb= -1.042946   kbcos= -0.009366
   l= 3   rc=  2.055542   el=  0.003420   Ekb= -0.408633   kbcos= -0.001262

KBgen: Total number of  Kleinman-Bylander projectors:   16
atom: -------------------------------------------------------------------------

atom: SANKEY-TYPE ORBITALS:
atom: Selected multiple-zeta basis: split     

SPLIT: Orbitals with angular momentum L= 0

SPLIT: Basis orbitals for state 2s

SPLIT: PAO cut-off radius determined from an
SPLIT: energy shift=  0.003675 Ry

   izeta = 1
                 lambda =    1.000000
                     rc =    5.120028
                 energy =   -0.998767
                kinetic =    0.821771
    potential(screened) =   -1.820539
       potential(ionic) =   -5.388409

   izeta = 2
                 rmatch =    3.518811
              splitnorm =    0.150000
                 energy =   -0.873020
                kinetic =    1.256076
    potential(screened) =   -2.129096
       potential(ionic) =   -5.956015

SPLIT: Orbitals with angular momentum L= 1

SPLIT: Basis orbitals for state 2p

SPLIT: PAO cut-off radius determined from an
SPLIT: energy shift=  0.003675 Ry

   izeta = 1
                 lambda =    1.000000
                     rc =    6.253707
                 energy =   -0.395148
                kinetic =    2.370497
    potential(screened) =   -2.765644
       potential(ionic) =   -6.191332

   izeta = 2
                 rmatch =    3.745781
              splitnorm =    0.150000
                 energy =   -0.266174
                kinetic =    3.541877
    potential(screened) =   -3.808051
       potential(ionic) =   -7.637171

POLgen: Perturbative polarization orbital with L=  2

POLgen: Polarization orbital for state 2p

   izeta = 1
                     rc =    6.253707
                 energy =    1.011794
                kinetic =    2.139817
    potential(screened) =   -1.128023
       potential(ionic) =   -3.866082
atom: Total number of Sankey-type orbitals: 13

atm_pop: Valence configuration (for local Pseudopot. screening):
 2s( 2.00)                                                            
 2p( 2.00)                                                            
Vna: chval, zval:    4.00000   4.00000

Vna:  Cut-off radius for the neutral-atom potential:   6.253707

atom: _________________________________________________________________________

<basis_specs>
===============================================================================
H                    Z=   1    Mass=  1.0100        Charge= 0.17977+309
Lmxo=0 Lmxkb= 2    BasisType=split      Semic=F
L=0  Nsemic=0  Cnfigmx=1
          n=1  nzeta=2  polorb=1
            splnorm:   0.15000    
               vcte:    0.0000    
               rinn:    0.0000    
                rcs:    0.0000      0.0000    
            lambdas:    1.0000      1.0000    
-------------------------------------------------------------------------------
L=0  Nkbl=1  erefs: 0.17977+309
L=1  Nkbl=1  erefs: 0.17977+309
L=2  Nkbl=1  erefs: 0.17977+309
===============================================================================
</basis_specs>

atom: Called for H                     (Z =   1)

read_vps: Pseudopotential generation method:
read_vps: ATM3      Troullier-Martins                       
Total valence charge:    1.00000

xc_check: Exchange-correlation functional:
xc_check: Ceperley-Alder
V l=0 = -2*Zval/r beyond r=  1.2977
V l=1 = -2*Zval/r beyond r=  1.2815
V l=2 = -2*Zval/r beyond r=  1.1307
All V_l potentials equal beyond r=  1.2977
This should be close to max(r_c) in ps generation
All pots = -2*Zval/r beyond r=  1.2977

VLOCAL1: 99.0% of the norm of Vloc inside     25.776 Ry
VLOCAL1: 99.9% of the norm of Vloc inside     58.745 Ry
atom: Maximum radius for 4*pi*r*r*local-pseudopot. charge    1.52711
atom: Maximum radius for r*vlocal+2*Zval:    1.28155
GHOST: No ghost state for L =  0
GHOST: No ghost state for L =  1
GHOST: No ghost state for L =  2

KBgen: Kleinman-Bylander projectors: 
   l= 0   rc=  1.434438   el= -0.467325   Ekb= -1.940326   kbcos= -0.353040
   l= 1   rc=  1.508111   el=  0.001430   Ekb= -0.480826   kbcos= -0.024144
   l= 2   rc=  1.527112   el=  0.002365   Ekb= -0.479392   kbcos= -0.001656

KBgen: Total number of  Kleinman-Bylander projectors:    9
atom: -------------------------------------------------------------------------

atom: SANKEY-TYPE ORBITALS:
atom: Selected multiple-zeta basis: split     

SPLIT: Orbitals with angular momentum L= 0

SPLIT: Basis orbitals for state 1s

SPLIT: PAO cut-off radius determined from an
SPLIT: energy shift=  0.003675 Ry

   izeta = 1
                 lambda =    1.000000
                     rc =    6.047169
                 energy =   -0.463576
                kinetic =    0.850090
    potential(screened) =   -1.313666
       potential(ionic) =   -1.841630

   izeta = 2
                 rmatch =    4.103729
              splitnorm =    0.150000
                 energy =   -0.367852
                kinetic =    1.391076
    potential(screened) =   -1.758928
       potential(ionic) =   -2.326039

POLgen: Perturbative polarization orbital with L=  1

POLgen: Polarization orbital for state 1s

   izeta = 1
                     rc =    6.047169
                 energy =    0.538628
                kinetic =    1.146585
    potential(screened) =   -0.607956
       potential(ionic) =   -1.068849
atom: Total number of Sankey-type orbitals:  5

atm_pop: Valence configuration (for local Pseudopot. screening):
 1s( 1.00)                                                            
Vna: chval, zval:    1.00000   1.00000

Vna:  Cut-off radius for the neutral-atom potential:   6.047169

atom: _________________________________________________________________________

prinput: Basis input ----------------------------------------------------------

PAO.BasisType split     

%block ChemicalSpeciesLabel
    1    7 N                       # Species index, atomic number, species label
    2    6 C                       # Species index, atomic number, species label
    3    1 H                       # Species index, atomic number, species label
%endblock ChemicalSpeciesLabel

%block PAO.Basis                 # Define Basis set
N                     2                    # Species label, number of l-shells
 n=2   0   2                         # n, l, Nzeta 
   4.500      2.979   
   1.000      1.000   
 n=2   1   2 P   1                   # n, l, Nzeta, Polarization, NzetaPol
   5.496      3.131   
   1.000      1.000   
C                     2                    # Species label, number of l-shells
 n=2   0   2                         # n, l, Nzeta 
   5.120      3.519   
   1.000      1.000   
 n=2   1   2 P   1                   # n, l, Nzeta, Polarization, NzetaPol
   6.254      3.746   
   1.000      1.000   
H                     1                    # Species label, number of l-shells
 n=1   0   2 P   1                   # n, l, Nzeta, Polarization, NzetaPol
   6.047      4.104   
   1.000      1.000   
%endblock PAO.Basis

prinput: ----------------------------------------------------------------------

coor:   Atomic-coordinates input format  =     Cartesian coordinates
coor:                                          (in Angstroms)

siesta: Atomic coordinates (Bohr) and species
siesta:     21.80934  11.93103   6.53771  1        1
siesta:     20.12393  15.85508   6.53323  1        2
siesta:     14.28973  16.48195   6.53204  1        3
siesta:     14.20465  12.10209   6.54115  1        4
siesta:     17.90722   9.42860   6.54128  1        5
siesta:     22.22678  14.50561   6.53986  2        6
siesta:     18.23324  14.07318   6.53442  2        7
siesta:     15.55424  14.24990   6.52805  2        8
siesta:     15.41376   9.87226   6.55319  2        9
siesta:     19.22436  11.58932   6.53740  2       10
siesta:     23.12651  10.50736   6.55577  3       11
siesta:     24.16846  15.30324   6.56208  3       12
siesta:     12.35843  16.42065   6.42982  3       13
siesta:     15.26268  18.15104   6.42799  3       14
siesta:     14.17137   8.16591   6.58843  3       15

siesta: Automatic unit cell vectors (Ang):
siesta:   13.914603    0.000000    0.000000
siesta:    0.000000   12.852339    0.000000
siesta:    0.000000    0.000000    7.295132

siesta: System type = molecule  

initatomlists: Number of atoms, orbitals, and projectors:     15   155   205

siesta: ******************** Simulation parameters ****************************
siesta:
siesta: The following are some of the parameters of the simulation.
siesta: A complete list of the parameters used, including default values,
siesta: can be found in file out.fdf
siesta:
redata: Non-Collinear-spin run           =     F
redata: SpinPolarized (Up/Down) run      =     F
redata: Number of spin components        =     1
redata: Long output                      =     F
redata: Number of Atomic Species         =        3
redata: Charge density info will appear in .RHO file
redata: Write Mulliken Pop.              =     NO
redata: Mesh Cutoff                      =   130.0000  Ry
redata: Net charge of the system         =     0.0000 |e|
redata: Max. number of SCF Iter          =      100
redata: Performing Pulay mixing using    =     3 iterations
redata: Mix DM in first SCF step ?       =     F
redata: Write Pulay info on disk?        =     F
redata: Discard 1st Pulay DM after  kick =     F
redata: New DM Mixing Weight             =     0.1000
redata: New DM Occupancy tolerance       = 0.000000000001
redata: No kicks to SCF
redata: DM Mixing Weight for Kicks       =     0.5000
redata: DM Tolerance for SCF             =     0.000100
redata: Require Energy convergence for SCF =     F
redata: DM Energy tolerance for SCF      =     0.000100 eV
redata: Require Harris convergence for SCF =     F
redata: DM Harris energy tolerance for SCF =     0.000100 eV
redata: Using Saved Data (generic)   =     F
redata: Use continuation files for DM    =     T
redata: Neglect nonoverlap interactions  =     F
redata: Method of Calculation            =     Diagonalization
redata: Divide and Conquer               =     T
redata: Electronic Temperature           =     0.0019  Ry
redata: Fix the spin of the system       =     F
redata: Dynamics option                  =     CG coord. optimization
redata: Variable cell                    =     F
redata: Use continuation files for CG    =     F
redata: Max atomic displ per move        =     0.2000  Bohr
redata: Maximum number of CG moves       =      600
redata: Force tolerance                  =     0.0016  Ry/Bohr
redata: ***********************************************************************
Total number of electrons:    50.000000
Total ionic charge:    50.000000
 Kpoints in:            1 . Kpoints trimmed:            1

siesta: k-grid: Number of k-points =     1
siesta: k-grid: Cutoff (effective) =     3.648 Ang
siesta: k-grid: Supercell and displacements
siesta: k-grid:    1   0   0      0.000
siesta: k-grid:    0   1   0      0.000
siesta: k-grid:    0   0   1      0.000

* Maximum dynamic memory allocated =     3 MB

siesta:                 ==============================
                            Begin CG move =      0
                        ==============================

outcoor: Atomic coordinates (Ang):                          
   11.54100094    6.31362771    3.45960492   1       1  N
   10.64912161    8.39014580    3.45723428   1       2  N
    7.56179549    8.72186773    3.45660473   1       3  N
    7.51677522    6.40414925    3.46142484   1       4  N
    9.47608980    4.98939922    3.46149595   1       5  N
   11.76189822    7.67603301    3.46074476   2       6  C
    9.64861115    7.44720159    3.45786587   2       7  C
    8.23094583    7.54071849    3.45449535   2       8  C
    8.15660838    5.22417047    3.46779741   2       9  C
   10.17309133    6.13279984    3.45944364   2      10  C
   12.23801595    5.56025582    3.46916130   3      11  H
   12.78939234    8.09812215    3.47249939   3      12  H
    6.53979852    8.68942868    3.40251529   3      13  H
    8.07666182    9.60511041    3.40154388   3      14  H
    7.49916097    4.32121097    3.48644516   3      15  H

outcell: Unit cell vectors (Ang):
       13.914603    0.000000    0.000000
        0.000000   12.852339    0.000000
        0.000000    0.000000    7.295132

outcell: Cell vector modules (Ang)   :   13.914603   12.852339    7.295132
outcell: Cell angles (23,13,12) (deg):     90.0000     90.0000     90.0000
outcell: Cell volume (Ang**3)        :   1304.6264
New_DM. Step:     1
Initializing Density Matrix...

InitMesh: MESH =    96 x    90 x    54 =      466560
InitMesh: Mesh cutoff (required, used) =   130.000   131.554 Ry

* Maximum dynamic memory allocated =    51 MB

stepf: Fermi-Dirac step function

siesta: Program's energy decomposition (eV):
siesta: Ebs     =      -846.549819
siesta: Eions   =      3453.429722
siesta: Ena     =       644.058239
siesta: Ekin    =      1341.603940
siesta: Enl     =      -149.978305
siesta: DEna    =        -0.000000
siesta: DUscf   =         0.000000
siesta: DUext   =         0.000000
siesta: Exc     =      -595.482609
siesta: eta*DQ  =         0.000000
siesta: Emadel  =         0.000000
siesta: Emeta   =         0.000000
siesta: Emolmec =         0.000000
siesta: Ekinion =         0.000000
siesta: Eharris =     -2212.377197
siesta: Etot    =     -2213.228457
siesta: FreeEng =     -2213.228457

siesta: iscf   Eharris(eV)      E_KS(eV)   FreeEng(eV)   dDmax  Ef(eV)
siesta:    1    -2212.3772    -2213.2285    -2213.2285  1.9575 -6.9478
timer: Routine,Calls,Time,% = IterSCF        1      12.513  82.08
elaps: Routine,Calls,Wall,% = IterSCF        1      12.553  81.76
siesta:    2    -2214.4358    -2201.1621    -2201.1621  0.8773 -0.7594
siesta:    3    -2207.7400    -2206.5004    -2206.5004  0.4820 -3.1992
siesta:    4    -2206.9462    -2205.2041    -2205.2041  0.2782 -3.0607
siesta:    5    -2206.6416    -2205.2202    -2205.2202  0.1074 -3.5273
siesta:    6    -2206.6050    -2205.5678    -2205.5678  0.0757 -3.7750
siesta:    7    -2206.5555    -2205.9396    -2205.9396  0.0741 -3.9262
siesta:    8    -2206.5316    -2206.1654    -2206.1654  0.0633 -3.9256
siesta:    9    -2206.5279    -2206.2664    -2206.2664  0.0501 -3.8672
siesta:   10    -2206.5290    -2206.3036    -2206.3036  0.0297 -3.7679
siesta:   11    -2206.5295    -2206.2940    -2206.2940  0.0214 -3.7503
siesta:   12    -2206.5292    -2206.2796    -2206.2796  0.0133 -3.7954
siesta:   13    -2206.5285    -2206.2996    -2206.2996  0.0120 -3.8337
siesta:   14    -2206.5276    -2206.3534    -2206.3534  0.0111 -3.8593
siesta:   15    -2206.5272    -2206.3983    -2206.3983  0.0099 -3.8499
siesta:   16    -2206.5269    -2206.4426    -2206.4426  0.0081 -3.8279
siesta:   17    -2206.5269    -2206.4698    -2206.4698  0.0060 -3.8107
siesta:   18    -2206.5269    -2206.4817    -2206.4817  0.0042 -3.8074
siesta:   19    -2206.5269    -2206.4818    -2206.4818  0.0026 -3.8177
siesta:   20    -2206.5269    -2206.4817    -2206.4817  0.0020 -3.8249
siesta:   21    -2206.5269    -2206.4857    -2206.4857  0.0016 -3.8276
siesta:   22    -2206.5269    -2206.4927    -2206.4927  0.0015 -3.8250
siesta:   23    -2206.5268    -2206.5045    -2206.5045  0.0013 -3.8199
siesta:   24    -2206.5268    -2206.5110    -2206.5110  0.0012 -3.8182
siesta:   25    -2206.5268    -2206.5163    -2206.5163  0.0009 -3.8184
siesta:   26    -2206.5268    -2206.5184    -2206.5184  0.0006 -3.8200
siesta:   27    -2206.5268    -2206.5190    -2206.5190  0.0003 -3.8209
siesta:   28    -2206.5268    -2206.5192    -2206.5192  0.0002 -3.8208
siesta:   29    -2206.5268    -2206.5200    -2206.5200  0.0002 -3.8203
siesta:   30    -2206.5268    -2206.5217    -2206.5217  0.0002 -3.8195
siesta:   31    -2206.5268    -2206.5228    -2206.5228  0.0002 -3.8194
siesta:   32    -2206.5268    -2206.5243    -2206.5243  0.0002 -3.8197
siesta:   33    -2206.5268    -2206.5251    -2206.5251  0.0001 -3.8199
siesta:   34    -2206.5268    -2206.5256    -2206.5256  0.0001 -3.8200

siesta: E_KS(eV) =            -2206.5257

siesta: E_KS - E_eggbox =     -2206.5257

siesta: Atomic forces (eV/Ang):
----------------------------------------
   Tot    0.000035    0.027832    0.026064
----------------------------------------
   Max    0.279984
   Res    0.101231    sqrt( Sum f_i^2 / 3N )
----------------------------------------
   Max    0.279984    constrained

Stress-tensor-Voigt (kbar):        2.61        2.29       -0.03       -0.60       -0.01        0.00
(Free)E + p*V (eV/cell)    -2207.8488
Target enthalpy (eV/cell)    -2206.5257

* Maximum dynamic memory allocated =    51 MB

siesta:                 ==============================
                            Begin CG move =      1
                        ==============================

outcoor: Atomic coordinates (Ang):                          
   11.49736511    6.33096126    3.46239391   1       1  N
   10.68284938    8.36358747    3.45944088   1       2  N
    7.60182039    8.69410906    3.45386612   1       3  N
    7.50232522    6.40054637    3.46253410   1       4  N
    9.49041057    5.00446452    3.46652979   1       5  N
   11.74392781    7.67923668    3.46254064   2       6  C
    9.65175358    7.42416105    3.45556767   2       7  C
    8.22936525    7.54584900    3.45666970   2       8  C
    8.17386696    5.23734369    3.46920018   2       9  C
   10.15253553    6.15859710    3.45747801   2      10  C
   12.22704346    5.57461119    3.46835342   3      11  H
   12.77099797    8.09117857    3.46950910   3      12  H
    6.55427916    8.69024179    3.40441825   3      13  H
    8.07019088    9.58840551    3.40247240   3      14  H
    7.51024178    4.33528545    3.48196469   3      15  H

outcell: Unit cell vectors (Ang):
       13.914603    0.000000    0.000000
        0.000000   12.852339    0.000000
        0.000000    0.000000    7.295132

outcell: Cell vector modules (Ang)   :   13.914603   12.852339    7.295132
outcell: Cell angles (23,13,12) (deg):     90.0000     90.0000     90.0000
outcell: Cell volume (Ang**3)        :   1304.6264
New_DM. Step:     2
Re-using DM from previous geometry...
Re-using DM without extrapolation (not allowed)
Density Matrix sparsity pattern changed.

siesta: iscf   Eharris(eV)      E_KS(eV)   FreeEng(eV)   dDmax  Ef(eV)
siesta:    1    -2206.3337    -2207.1792    -2207.1792  0.0799 -3.8838
siesta:    2    -2206.4732    -2206.2009    -2206.2009  0.0584 -4.0748
siesta:    3    -2206.3099    -2206.5019    -2206.5019  0.0252 -3.9772
siesta:    4    -2206.2879    -2206.2602    -2206.2602  0.0106 -3.9283
siesta:    5    -2206.2865    -2206.2609    -2206.2609  0.0094 -3.9228
siesta:    6    -2206.2855    -2206.2899    -2206.2899  0.0047 -3.9180
siesta:    7    -2206.2854    -2206.2944    -2206.2944  0.0032 -3.9189
siesta:    8    -2206.2853    -2206.2956    -2206.2956  0.0016 -3.9224
siesta:    9    -2206.2853    -2206.2926    -2206.2926  0.0012 -3.9229
siesta:   10    -2206.2854    -2206.2853    -2206.2853  0.0009 -3.9229
siesta:   11    -2206.2853    -2206.2831    -2206.2831  0.0009 -3.9222
siesta:   12    -2206.2853    -2206.2830    -2206.2830  0.0007 -3.9219
siesta:   13    -2206.2853    -2206.2845    -2206.2845  0.0004 -3.9219
siesta:   14    -2206.2853    -2206.2851    -2206.2851  0.0003 -3.9220
siesta:   15    -2206.2853    -2206.2859    -2206.2859  0.0002 -3.9221
siesta:   16    -2206.2853    -2206.2858    -2206.2858  0.0001 -3.9221
siesta:   17    -2206.2853    -2206.2853    -2206.2853  0.0001 -3.9221

siesta: E_KS(eV) =            -2206.2851

siesta: Atomic forces (eV/Ang):
----------------------------------------
   Tot    0.042537    0.004499    0.024472
----------------------------------------
   Max    3.251808
   Res    1.093453    sqrt( Sum f_i^2 / 3N )
----------------------------------------
   Max    3.251808    constrained

Stress-tensor-Voigt (kbar):       -3.08       -7.70       -0.03        4.13        0.03        0.08
(Free)E + p*V (eV/cell)    -2203.3513
Target enthalpy (eV/cell)    -2206.2851

* Maximum dynamic memory allocated =    51 MB

siesta:                 ==============================
                            Begin CG move =      2
                        ==============================

outcoor: Atomic coordinates (Ang):                          
   11.53620678    6.31553210    3.45991134   1       1  N
   10.65282719    8.38722791    3.45747671   1       2  N
    7.56619292    8.71881796    3.45630385   1       3  N
    7.51518764    6.40375341    3.46154671   1       4  N
    9.47766319    4.99105441    3.46204900   1       5  N
   11.75992386    7.67638499    3.46094207   2       6  C
    9.64895640    7.44467018    3.45761337   2       7  C
    8.23077218    7.54128217    3.45473424   2       8  C
    8.15850454    5.22561778    3.46795153   2       9  C
   10.17083292    6.13563412    3.45922768   2      10  C
   12.23681043    5.56183301    3.46907254   3      11  H
   12.78737140    8.09735928    3.47217085   3      12  H
    6.54138947    8.68951801    3.40272436   3      13  H
    8.07595087    9.60327509    3.40164589   3      14  H
    7.50037839    4.32275730    3.48595290   3      15  H

outcell: Unit cell vectors (Ang):
       13.914603    0.000000    0.000000
        0.000000   12.852339    0.000000
        0.000000    0.000000    7.295132

outcell: Cell vector modules (Ang)   :   13.914603   12.852339    7.295132
outcell: Cell angles (23,13,12) (deg):     90.0000     90.0000     90.0000
outcell: Cell volume (Ang**3)        :   1304.6264
New_DM. Step:     3
Re-using DM from previous geometry...
Re-using DM without extrapolation (not allowed)
Density Matrix sparsity pattern changed.

siesta: iscf   Eharris(eV)      E_KS(eV)   FreeEng(eV)   dDmax  Ef(eV)
siesta:    1    -2206.5723    -2205.6824    -2205.6824  0.0720 -3.8506
siesta:    2    -2206.7063    -2206.4539    -2206.4539  0.0569 -3.7856
siesta:    3    -2206.5538    -2206.2608    -2206.2608  0.0252 -3.8063
siesta:    4    -2206.5329    -2206.4916    -2206.4916  0.0106 -3.8323
siesta:    5    -2206.5322    -2206.5049    -2206.5049  0.0084 -3.8325
siesta:    6    -2206.5314    -2206.5257    -2206.5257  0.0047 -3.8319
siesta:    7    -2206.5313    -2206.5167    -2206.5167  0.0021 -3.8311
siesta:    8    -2206.5312    -2206.5162    -2206.5162  0.0013 -3.8315
siesta:    9    -2206.5312    -2206.5222    -2206.5222  0.0005 -3.8326
siesta:   10    -2206.5312    -2206.5238    -2206.5238  0.0004 -3.8325
siesta:   11    -2206.5312    -2206.5302    -2206.5302  0.0002 -3.8320
siesta:   12    -2206.5312    -2206.5304    -2206.5304  0.0002 -3.8319
siesta:   13    -2206.5312    -2206.5305    -2206.5305  0.0001 -3.8318
siesta:   14    -2206.5312    -2206.5303    -2206.5303  0.0001 -3.8319

siesta: E_KS(eV) =            -2206.5303

siesta: Atomic forces (eV/Ang):
----------------------------------------
   Tot    0.007298    0.025517    0.025884
----------------------------------------
   Max    0.200416
   Res    0.071062    sqrt( Sum f_i^2 / 3N )
----------------------------------------
   Max    0.200416    constrained

Stress-tensor-Voigt (kbar):        2.07        1.30       -0.03       -0.15       -0.00        0.01
(Free)E + p*V (eV/cell)    -2207.4364
Target enthalpy (eV/cell)    -2206.5303

cgvc: Finished line minimization    1.  Mean atomic displacement =    0.0057

* Maximum dynamic memory allocated =    52 MB

siesta:                 ==============================
                            Begin CG move =      3
                        ==============================

outcoor: Atomic coordinates (Ang):                          
   11.53366661    6.31545161    3.46037375   1       1  N
   10.65251053    8.38587902    3.45779120   1       2  N
    7.56747452    8.71705692    3.45570279   1       3  N
    7.51363476    6.40412779    3.46173739   1       4  N
    9.47891174    4.99302057    3.46286465   1       5  N
   11.76067235    7.67467539    3.46127881   2       6  C
    9.64778556    7.44555715    3.45726708   2       7  C
    8.23296908    7.53803156    3.45502377   2       8  C
    8.16052879    5.22691532    3.46821471   2       9  C
   10.16864536    6.13707514    3.45900207   2      10  C
   12.23300099    5.56574491    3.46891521   3      11  H
   12.78455982    8.09612774    3.47166372   3      12  H
    6.54614199    8.68935660    3.40323717   3      13  H
    8.07602014    9.60116740    3.40178939   3      14  H
    7.50259309    4.32525952    3.48518400   3      15  H

outcell: Unit cell vectors (Ang):
       13.914603    0.000000    0.000000
        0.000000   12.852339    0.000000
        0.000000    0.000000    7.295132

outcell: Cell vector modules (Ang)   :   13.914603   12.852339    7.295132
outcell: Cell angles (23,13,12) (deg):     90.0000     90.0000     90.0000
outcell: Cell volume (Ang**3)        :   1304.6264
New_DM. Step:     4
Re-using DM from previous geometry...
Re-using DM without extrapolation (not allowed)
Density Matrix sparsity pattern changed.

siesta: iscf   Eharris(eV)      E_KS(eV)   FreeEng(eV)   dDmax  Ef(eV)
siesta:    1    -2206.5344    -2206.6178    -2206.6178  0.0068 -3.8277
siesta:    2    -2206.5359    -2206.5334    -2206.5334  0.0083 -3.8380
siesta:    3    -2206.5343    -2206.5673    -2206.5673  0.0028 -3.8298
siesta:    4    -2206.5342    -2206.5393    -2206.5393  0.0008 -3.8216
siesta:    5    -2206.5342    -2206.5378    -2206.5378  0.0007 -3.8221
siesta:    6    -2206.5341    -2206.5348    -2206.5348  0.0002 -3.8248
siesta:    7    -2206.5341    -2206.5349    -2206.5349  0.0001 -3.8251
siesta:    8    -2206.5341    -2206.5351    -2206.5351  0.0001 -3.8254

siesta: E_KS(eV) =            -2206.5350

siesta: Atomic forces (eV/Ang):
----------------------------------------
   Tot    0.011032    0.027599    0.025897
----------------------------------------
   Max    0.117176
   Res    0.045050    sqrt( Sum f_i^2 / 3N )
----------------------------------------
   Max    0.117176    constrained

Stress-tensor-Voigt (kbar):        1.38        0.63       -0.03       -0.30       -0.00        0.00
(Free)E + p*V (eV/cell)    -2207.0732
Target enthalpy (eV/cell)    -2206.5350

* Maximum dynamic memory allocated =    52 MB

siesta:                 ==============================
                            Begin CG move =      4
                        ==============================

outcoor: Atomic coordinates (Ang):                          
   11.52960234    6.31532283    3.46111360   1       1  N
   10.65200387    8.38372080    3.45829438   1       2  N
    7.56952508    8.71423925    3.45474110   1       3  N
    7.51115015    6.40472679    3.46204249   1       4  N
    9.48090942    4.99616644    3.46416967   1       5  N
   11.76186994    7.67194004    3.46181760   2       6  C
    9.64591220    7.44697630    3.45671300   2       7  C
    8.23648413    7.53283059    3.45548702   2       8  C
    8.16376759    5.22899138    3.46863579   2       9  C
   10.16514526    6.13938078    3.45864108   2      10  C
   12.22690588    5.57200395    3.46866348   3      11  H
   12.78006130    8.09415727    3.47085230   3      12  H
    6.55374603    8.68909833    3.40405765   3      13  H
    8.07613096    9.59779509    3.40201899   3      14  H
    7.50613662    4.32926309    3.48395374   3      15  H

outcell: Unit cell vectors (Ang):
       13.914603    0.000000    0.000000
        0.000000   12.852339    0.000000
        0.000000    0.000000    7.295132

outcell: Cell vector modules (Ang)   :   13.914603   12.852339    7.295132
outcell: Cell angles (23,13,12) (deg):     90.0000     90.0000     90.0000
outcell: Cell volume (Ang**3)        :   1304.6264
New_DM. Step:     5
Re-using DM from previous geometry...
Re-using DM without extrapolation (not allowed)
Density Matrix sparsity pattern changed.

siesta: iscf   Eharris(eV)      E_KS(eV)   FreeEng(eV)   dDmax  Ef(eV)
siesta:    1    -2206.5315    -2206.6690    -2206.6690  0.0109 -3.8176
siesta:    2    -2206.5352    -2206.5290    -2206.5290  0.0133 -3.8348
siesta:    3    -2206.5309    -2206.5849    -2206.5849  0.0044 -3.8211
siesta:    4    -2206.5307    -2206.5387    -2206.5387  0.0013 -3.8081
siesta:    5    -2206.5307    -2206.5363    -2206.5363  0.0011 -3.8088
siesta:    6    -2206.5306    -2206.5317    -2206.5317  0.0002 -3.8131
siesta:    7    -2206.5306    -2206.5319    -2206.5319  0.0002 -3.8136
siesta:    8    -2206.5306    -2206.5322    -2206.5322  0.0001 -3.8142

siesta: E_KS(eV) =            -2206.5320

siesta: Atomic forces (eV/Ang):
----------------------------------------
   Tot    0.016559    0.024116    0.026245
----------------------------------------
   Max    0.412160
   Res    0.152310    sqrt( Sum f_i^2 / 3N )
----------------------------------------
   Max    0.412160    constrained

Stress-tensor-Voigt (kbar):        0.23       -0.43       -0.03       -0.53        0.00       -0.01
(Free)E + p*V (eV/cell)    -2206.4685
Target enthalpy (eV/cell)    -2206.5320

* Maximum dynamic memory allocated =    52 MB

siesta:                 ==============================
                            Begin CG move =      5
                        ==============================

outcoor: Atomic coordinates (Ang):                          
   11.53303564    6.31543162    3.46048861   1       1  N
   10.65243187    8.38554396    3.45786932   1       2  N
    7.56779287    8.71661948    3.45555349   1       3  N
    7.51324902    6.40422078    3.46178476   1       4  N
    9.47922188    4.99350897    3.46306725   1       5  N
   11.76085827    7.67425073    3.46136246   2       6  C
    9.64749472    7.44577747    3.45718106   2       7  C
    8.23351479    7.53722411    3.45509569   2       8  C
    8.16103161    5.22723762    3.46828008   2       9  C
   10.16810197    6.13743309    3.45894602   2      10  C
   12.23205472    5.56671662    3.46887613   3      11  H
   12.78386143    8.09582182    3.47153775   3      12  H
    6.54732252    8.68931650    3.40336455   3      13  H
    8.07603734    9.60064385    3.40182504   3      14  H
    7.50314322    4.32588107    3.48499300   3      15  H

outcell: Unit cell vectors (Ang):
       13.914603    0.000000    0.000000
        0.000000   12.852339    0.000000
        0.000000    0.000000    7.295132

outcell: Cell vector modules (Ang)   :   13.914603   12.852339    7.295132
outcell: Cell angles (23,13,12) (deg):     90.0000     90.0000     90.0000
outcell: Cell volume (Ang**3)        :   1304.6264
New_DM. Step:     6
Re-using DM from previous geometry...
Re-using DM without extrapolation (not allowed)
Density Matrix sparsity pattern changed.

siesta: iscf   Eharris(eV)      E_KS(eV)   FreeEng(eV)   dDmax  Ef(eV)
siesta:    1    -2206.5349    -2206.4188    -2206.4188  0.0091 -3.8203
siesta:    2    -2206.5375    -2206.5331    -2206.5331  0.0112 -3.8063
siesta:    3    -2206.5345    -2206.4879    -2206.4879  0.0037 -3.8169
siesta:    4    -2206.5343    -2206.5266    -2206.5266  0.0011 -3.8279
siesta:    5    -2206.5343    -2206.5288    -2206.5288  0.0009 -3.8272
siesta:    6    -2206.5343    -2206.5333    -2206.5333  0.0002 -3.8237
siesta:    7    -2206.5343    -2206.5330    -2206.5330  0.0002 -3.8232
siesta:    8    -2206.5342    -2206.5327    -2206.5327  0.0001 -3.8228

siesta: E_KS(eV) =            -2206.5330

siesta: Atomic forces (eV/Ang):
----------------------------------------
   Tot    0.014922    0.026366    0.026089
----------------------------------------
   Max    0.156003
   Res    0.056601    sqrt( Sum f_i^2 / 3N )
----------------------------------------
   Max    0.156003    constrained

Stress-tensor-Voigt (kbar):        1.20        0.46       -0.03       -0.34        0.00        0.00
(Free)E + p*V (eV/cell)    -2206.9773
Target enthalpy (eV/cell)    -2206.5330

cgvc: Finished line minimization    2.  Mean atomic displacement =    0.0071

* Maximum dynamic memory allocated =    52 MB

siesta:                 ==============================
                            Begin CG move =      6
                        ==============================

outcoor: Atomic coordinates (Ang):                          
   11.52900850    6.31709955    3.46119162   1       1  N
   10.65121151    8.38571435    3.45830083   1       2  N
    7.57288509    8.71276265    3.45475668   1       3  N
    7.51312691    6.40263121    3.46213232   1       4  N
    9.47969993    4.99519634    3.46436885   1       5  N
   11.75770730    7.67081007    3.46192245   2       6  C
    9.64852539    7.44744892    3.45673151   2       7  C
    8.23221615    7.53635275    3.45536183   2       8  C
    8.16166841    5.22891023    3.46875338   2       9  C
   10.16777851    6.13939711    3.45880606   2      10  C
   12.22736627    5.57033051    3.46864353   3      11  H
   12.78188662    8.09446120    3.47070441   3      12  H
    6.55231850    8.68849943    3.40415206   3      13  H
    8.07741717    9.59797146    3.40204279   3      14  H
    7.50684594    4.32938726    3.48368933   3      15  H

outcell: Unit cell vectors (Ang):
       13.914603    0.000000    0.000000
        0.000000   12.852339    0.000000
        0.000000    0.000000    7.295132

outcell: Cell vector modules (Ang)   :   13.914603   12.852339    7.295132
outcell: Cell angles (23,13,12) (deg):     90.0000     90.0000     90.0000
outcell: Cell volume (Ang**3)        :   1304.6264
New_DM. Step:     7
Re-using DM from previous geometry...
Re-using DM without extrapolation (not allowed)
Density Matrix sparsity pattern changed.

siesta: iscf   Eharris(eV)      E_KS(eV)   FreeEng(eV)   dDmax  Ef(eV)
siesta:    1    -2206.5358    -2206.6889    -2206.6889  0.0113 -3.8491
siesta:    2    -2206.5376    -2206.5341    -2206.5341  0.0078 -3.8540
siesta:    3    -2206.5354    -2206.5877    -2206.5877  0.0035 -3.8509
siesta:    4    -2206.5352    -2206.5401    -2206.5401  0.0007 -3.8488
siesta:    5    -2206.5352    -2206.5388    -2206.5388  0.0006 -3.8489
siesta:    6    -2206.5352    -2206.5359    -2206.5359  0.0002 -3.8495
siesta:    7    -2206.5352    -2206.5363    -2206.5363  0.0002 -3.8496
siesta:    8    -2206.5352    -2206.5365    -2206.5365  0.0001 -3.8496
siesta:    9    -2206.5352    -2206.5362    -2206.5362  0.0001 -3.8495

siesta: E_KS(eV) =            -2206.5360

siesta: Atomic forces (eV/Ang):
----------------------------------------
   Tot    0.025410    0.024754    0.026333
----------------------------------------
   Max    0.174189
   Res    0.049245    sqrt( Sum f_i^2 / 3N )
----------------------------------------
   Max    0.174189    constrained

Stress-tensor-Voigt (kbar):        0.46       -0.60       -0.03       -0.23        0.00        0.00
(Free)E + p*V (eV/cell)    -2206.4888
Target enthalpy (eV/cell)    -2206.5360

* Maximum dynamic memory allocated =    52 MB

siesta:                 ==============================
                            Begin CG move =      7
                        ==============================

outcoor: Atomic coordinates (Ang):                          
   11.53032477    6.31655439    3.46096184   1       1  N
   10.65161039    8.38565866    3.45815979   1       2  N
    7.57122069    8.71402326    3.45501711   1       3  N
    7.51316683    6.40315076    3.46201872   1       4  N
    9.47954368    4.99464482    3.46394342   1       5  N
   11.75873720    7.67193466    3.46173942   2       6  C
    9.64818851    7.44690260    3.45687844   2       7  C
    8.23264061    7.53663755    3.45527484   2       8  C
    8.16146027    5.22836353    3.46859868   2       9  C
   10.16788423    6.13875517    3.45885181   2      10  C
   12.22889870    5.56914931    3.46871956   3      11  H
   12.78253209    8.09490592    3.47097679   3      12  H
    6.55068555    8.68876649    3.40389466   3      13  H
    8.07696617    9.59884493    3.40197162   3      14  H
    7.50563570    4.32824126    3.48411543   3      15  H

outcell: Unit cell vectors (Ang):
       13.914603    0.000000    0.000000
        0.000000   12.852339    0.000000
        0.000000    0.000000    7.295132

outcell: Cell vector modules (Ang)   :   13.914603   12.852339    7.295132
outcell: Cell angles (23,13,12) (deg):     90.0000     90.0000     90.0000
outcell: Cell volume (Ang**3)        :   1304.6264
New_DM. Step:     8
Re-using DM from previous geometry...
Re-using DM without extrapolation (not allowed)
Density Matrix sparsity pattern changed.

siesta: iscf   Eharris(eV)      E_KS(eV)   FreeEng(eV)   dDmax  Ef(eV)
siesta:    1    -2206.5355    -2206.4852    -2206.4852  0.0037 -3.8411
siesta:    2    -2206.5357    -2206.5353    -2206.5353  0.0025 -3.8398
siesta:    3    -2206.5355    -2206.5182    -2206.5182  0.0011 -3.8405
siesta:    4    -2206.5355    -2206.5337    -2206.5337  0.0002 -3.8412
siesta:    5    -2206.5354    -2206.5341    -2206.5341  0.0002 -3.8411
siesta:    6    -2206.5355    -2206.5351    -2206.5351  0.0001 -3.8410

siesta: E_KS(eV) =            -2206.5350

siesta: Atomic forces (eV/Ang):
----------------------------------------
   Tot    0.022860    0.025612    0.026132
----------------------------------------
   Max    0.093076
   Res    0.029291    sqrt( Sum f_i^2 / 3N )
----------------------------------------
   Max    0.093076    constrained

Stress-tensor-Voigt (kbar):        0.70       -0.25       -0.03       -0.27        0.00        0.00
(Free)E + p*V (eV/cell)    -2206.6472
Target enthalpy (eV/cell)    -2206.5350

cgvc: Finished line minimization    3.  Mean atomic displacement =    0.0048

* Maximum dynamic memory allocated =    52 MB

siesta:                 ==============================
                            Begin CG move =      8
                        ==============================

outcoor: Atomic coordinates (Ang):                          
   11.52849677    6.31742997    3.46157479   1       1  N
   10.65078714    8.38916344    3.45838335   1       2  N
    7.57373930    8.71413595    3.45434927   1       3  N
    7.51431293    6.40247601    3.46236985   1       4  N
    9.47843547    4.99467674    3.46506214   1       5  N
   11.75562404    7.67453647    3.46230680   2       6  C
    9.64662637    7.44697265    3.45670297   2       7  C
    8.23310271    7.53565173    3.45518537   2       8  C
    8.16196454    5.22863133    3.46908958   2       9  C
   10.16719920    6.13940826    3.45920046   2      10  C
   12.22684517    5.56857497    3.46854580   3      11  H
   12.78152172    8.09306396    3.47015071   3      12  H
    6.55308012    8.68725134    3.40474968   3      13  H
    8.08098699    9.59717035    3.40219303   3      14  H
    7.50791262    4.32895282    3.48283795   3      15  H

outcell: Unit cell vectors (Ang):
       13.914603    0.000000    0.000000
        0.000000   12.852339    0.000000
        0.000000    0.000000    7.295132

outcell: Cell vector modules (Ang)   :   13.914603   12.852339    7.295132
outcell: Cell angles (23,13,12) (deg):     90.0000     90.0000     90.0000
outcell: Cell volume (Ang**3)        :   1304.6264
New_DM. Step:     9
Re-using DM from previous geometry...
Re-using DM without extrapolation (not allowed)
Density Matrix sparsity pattern changed.

siesta: iscf   Eharris(eV)      E_KS(eV)   FreeEng(eV)   dDmax  Ef(eV)
siesta:    1    -2206.5365    -2206.5478    -2206.5478  0.0047 -3.8379
siesta:    2    -2206.5370    -2206.5360    -2206.5360  0.0034 -3.8071
siesta:    3    -2206.5363    -2206.5402    -2206.5402  0.0015 -3.8226
siesta:    4    -2206.5363    -2206.5364    -2206.5364  0.0004 -3.8286
siesta:    5    -2206.5363    -2206.5364    -2206.5364  0.0003 -3.8288
siesta:    6    -2206.5363    -2206.5363    -2206.5363  0.0002 -3.8289
siesta:    7    -2206.5363    -2206.5364    -2206.5364  0.0001 -3.8288
siesta:    8    -2206.5363    -2206.5364    -2206.5364  0.0001 -3.8288

siesta: E_KS(eV) =            -2206.5364

siesta: Atomic forces (eV/Ang):
----------------------------------------
   Tot    0.018776    0.021698    0.026568
----------------------------------------
   Max    0.119348
   Res    0.032783    sqrt( Sum f_i^2 / 3N )
----------------------------------------
   Max    0.119348    constrained

Stress-tensor-Voigt (kbar):        0.21       -0.13       -0.03       -0.14        0.01        0.00
(Free)E + p*V (eV/cell)    -2206.5517
Target enthalpy (eV/cell)    -2206.5364

* Maximum dynamic memory allocated =    52 MB

siesta:                 ==============================
                            Begin CG move =      9
                        ==============================

outcoor: Atomic coordinates (Ang):                          
   11.52557196    6.31883091    3.46255551   1       1  N
   10.64946994    8.39477110    3.45874105   1       2  N
    7.57776907    8.71431627    3.45328071   1       3  N
    7.51614670    6.40139641    3.46293167   1       4  N
    9.47666233    4.99472781    3.46685208   1       5  N
   11.75064300    7.67869938    3.46321460   2       6  C
    9.64412695    7.44708472    3.45642222   2       7  C
    8.23384208    7.53407441    3.45504222   2       8  C
    8.16277138    5.22905981    3.46987502   2       9  C
   10.16610316    6.14045322    3.45975830   2      10  C
   12.22355952    5.56765603    3.46826780   3      11  H
   12.77990513    8.09011683    3.46882898   3      12  H
    6.55691142    8.68482711    3.40611772   3      13  H
    8.08742030    9.59449101    3.40254728   3      14  H
    7.51155570    4.33009132    3.48079396   3      15  H

outcell: Unit cell vectors (Ang):
       13.914603    0.000000    0.000000
        0.000000   12.852339    0.000000
        0.000000    0.000000    7.295132

outcell: Cell vector modules (Ang)   :   13.914603   12.852339    7.295132
outcell: Cell angles (23,13,12) (deg):     90.0000     90.0000     90.0000
outcell: Cell volume (Ang**3)        :   1304.6264
New_DM. Step:    10
Re-using DM from previous geometry...
Re-using DM without extrapolation (not allowed)
Density Matrix sparsity pattern changed.

siesta: iscf   Eharris(eV)      E_KS(eV)   FreeEng(eV)   dDmax  Ef(eV)
siesta:    1    -2206.5351    -2206.5549    -2206.5549  0.0076 -3.8234
siesta:    2    -2206.5365    -2206.5339    -2206.5339  0.0054 -3.7748
siesta:    3    -2206.5348    -2206.5415    -2206.5415  0.0024 -3.7992
siesta:    4    -2206.5346    -2206.5347    -2206.5347  0.0006 -3.8088
siesta:    5    -2206.5347    -2206.5346    -2206.5346  0.0005 -3.8089
siesta:    6    -2206.5347    -2206.5346    -2206.5346  0.0003 -3.8090
siesta:    7    -2206.5347    -2206.5348    -2206.5348  0.0002 -3.8089
siesta:    8    -2206.5347    -2206.5348    -2206.5348  0.0001 -3.8090
siesta:    9    -2206.5346    -2206.5348    -2206.5348  0.0000 -3.8092

siesta: E_KS(eV) =            -2206.5348

siesta: Atomic forces (eV/Ang):
----------------------------------------
   Tot    0.020104    0.023012    0.025844
----------------------------------------
   Max    0.294926
   Res    0.093930    sqrt( Sum f_i^2 / 3N )
----------------------------------------
   Max    0.294926    constrained

Stress-tensor-Voigt (kbar):       -0.59        0.05       -0.03        0.07        0.01        0.01
(Free)E + p*V (eV/cell)    -2206.3815
Target enthalpy (eV/cell)    -2206.5348

* Maximum dynamic memory allocated =    52 MB

siesta:                 ==============================
                            Begin CG move =     10
                        ==============================

outcoor: Atomic coordinates (Ang):                          
   11.52831255    6.31751821    3.46163656   1       1  N
   10.65070417    8.38951664    3.45840588   1       2  N
    7.57399311    8.71414731    3.45428196   1       3  N
    7.51442843    6.40240801    3.46240524   1       4  N
    9.47832379    4.99467996    3.46517488   1       5  N
   11.75531031    7.67479867    3.46236397   2       6  C
    9.64646895    7.44697971    3.45668529   2       7  C
    8.23314928    7.53555238    3.45517636   2       8  C
    8.16201536    5.22865832    3.46913905   2       9  C
   10.16713017    6.13947408    3.45923559   2      10  C
   12.22663822    5.56851709    3.46852829   3      11  H
   12.78141990    8.09287834    3.47006746   3      12  H
    6.55332143    8.68709865    3.40483585   3      13  H
    8.08139219    9.59700159    3.40221534   3      14  H
    7.50814208    4.32902453    3.48270921   3      15  H

outcell: Unit cell vectors (Ang):
       13.914603    0.000000    0.000000
        0.000000   12.852339    0.000000
        0.000000    0.000000    7.295132

outcell: Cell vector modules (Ang)   :   13.914603   12.852339    7.295132
outcell: Cell angles (23,13,12) (deg):     90.0000     90.0000     90.0000
outcell: Cell volume (Ang**3)        :   1304.6264
New_DM. Step:    11
Re-using DM from previous geometry...
Re-using DM without extrapolation (not allowed)
Density Matrix sparsity pattern changed.

siesta: iscf   Eharris(eV)      E_KS(eV)   FreeEng(eV)   dDmax  Ef(eV)
siesta:    1    -2206.5366    -2206.5172    -2206.5172  0.0070 -3.8144
siesta:    2    -2206.5379    -2206.5357    -2206.5357  0.0051 -3.8606
siesta:    3    -2206.5365    -2206.5295    -2206.5295  0.0022 -3.8370
siesta:    4    -2206.5364    -2206.5358    -2206.5358  0.0006 -3.8279
siesta:    5    -2206.5363    -2206.5360    -2206.5360  0.0005 -3.8278
siesta:    6    -2206.5363    -2206.5362    -2206.5362  0.0002 -3.8277
siesta:    7    -2206.5363    -2206.5360    -2206.5360  0.0002 -3.8279
siesta:    8    -2206.5363    -2206.5360    -2206.5360  0.0001 -3.8278

siesta: E_KS(eV) =            -2206.5362

siesta: Atomic forces (eV/Ang):
----------------------------------------
   Tot    0.018632    0.022187    0.026712
----------------------------------------
   Max    0.129890
   Res    0.035776    sqrt( Sum f_i^2 / 3N )
----------------------------------------
   Max    0.129890    constrained

Stress-tensor-Voigt (kbar):        0.15       -0.12       -0.03       -0.13        0.01        0.00
(Free)E + p*V (eV/cell)    -2206.5379
Target enthalpy (eV/cell)    -2206.5362

cgvc: Finished line minimization    4.  Mean atomic displacement =    0.0052

* Maximum dynamic memory allocated =    52 MB

siesta:                 ==============================
                            Begin CG move =     11
                        ==============================

outcoor: Atomic coordinates (Ang):                          
   11.52760027    6.31908349    3.46242609   1       1  N
   10.64666532    8.39247025    3.45857499   1       2  N
    7.57542444    8.71354883    3.45351977   1       3  N
    7.51464607    6.40250960    3.46278838   1       4  N
    9.47896965    4.99494271    3.46644474   1       5  N
   11.75411447    7.67733020    3.46298003   2       6  C
    9.64682853    7.44816588    3.45662252   2       7  C
    8.23332757    7.53540512    3.45503150   2       8  C
    8.16207365    5.22855669    3.46968965   2       9  C
   10.16530104    6.13965523    3.45989018   2      10  C
   12.22410982    5.56785058    3.46834647   3      11  H
   12.78003922    8.09081450    3.46907978   3      12  H
    6.55593784    8.68554309    3.40593681   3      13  H
    8.08747476    9.59600864    3.40243530   3      14  H
    7.50974358    4.32834885    3.48120488   3      15  H

outcell: Unit cell vectors (Ang):
       13.914603    0.000000    0.000000
        0.000000   12.852339    0.000000
        0.000000    0.000000    7.295132

outcell: Cell vector modules (Ang)   :   13.914603   12.852339    7.295132
outcell: Cell angles (23,13,12) (deg):     90.0000     90.0000     90.0000
outcell: Cell volume (Ang**3)        :   1304.6264
New_DM. Step:    12
Re-using DM from previous geometry...
Re-using DM without extrapolation (not allowed)
Density Matrix sparsity pattern changed.

siesta: iscf   Eharris(eV)      E_KS(eV)   FreeEng(eV)   dDmax  Ef(eV)
siesta:    1    -2206.5370    -2206.5274    -2206.5274  0.0038 -3.8254
siesta:    2    -2206.5373    -2206.5367    -2206.5367  0.0040 -3.8027
siesta:    3    -2206.5370    -2206.5348    -2206.5348  0.0021 -3.8116
siesta:    4    -2206.5369    -2206.5367    -2206.5367  0.0003 -3.8169
siesta:    5    -2206.5369    -2206.5368    -2206.5368  0.0002 -3.8172
siesta:    6    -2206.5369    -2206.5369    -2206.5369  0.0001 -3.8178
siesta:    7    -2206.5369    -2206.5369    -2206.5369  0.0001 -3.8179

siesta: E_KS(eV) =            -2206.5368

siesta: Atomic forces (eV/Ang):
----------------------------------------
   Tot    0.023865    0.023651    0.026136
----------------------------------------
   Max    0.075713
   Res    0.031067    sqrt( Sum f_i^2 / 3N )
----------------------------------------
   Max    0.075713    constrained

Stress-tensor-Voigt (kbar):        0.02        0.03       -0.03       -0.24        0.00       -0.00
(Free)E + p*V (eV/cell)    -2206.5437
Target enthalpy (eV/cell)    -2206.5368

* Maximum dynamic memory allocated =    52 MB

siesta:                 ==============================
                            Begin CG move =     12
                        ==============================

outcoor: Atomic coordinates (Ang):                          
   11.52768713    6.31889259    3.46232980   1       1  N
   10.64715789    8.39211003    3.45855437   1       2  N
    7.57524988    8.71362182    3.45361273   1       3  N
    7.51461953    6.40249721    3.46274166   1       4  N
    9.47889088    4.99491067    3.46628987   1       5  N
   11.75426031    7.67702146    3.46290490   2       6  C
    9.64678467    7.44802121    3.45663017   2       7  C
    8.23330583    7.53542308    3.45504917   2       8  C
    8.16206654    5.22856908    3.46962250   2       9  C
   10.16552412    6.13963313    3.45981035   2      10  C
   12.22441818    5.56793187    3.46836864   3      11  H
   12.78020761    8.09106620    3.46920023   3      12  H
    6.55561875    8.68573280    3.40580254   3      13  H
    8.08673294    9.59612973    3.40240847   3      14  H
    7.50954827    4.32843125    3.48138834   3      15  H

outcell: Unit cell vectors (Ang):
       13.914603    0.000000    0.000000
        0.000000   12.852339    0.000000
        0.000000    0.000000    7.295132

outcell: Cell vector modules (Ang)   :   13.914603   12.852339    7.295132
outcell: Cell angles (23,13,12) (deg):     90.0000     90.0000     90.0000
outcell: Cell volume (Ang**3)        :   1304.6264
New_DM. Step:    13
Re-using DM from previous geometry...
Re-using DM without extrapolation (not allowed)

siesta: iscf   Eharris(eV)      E_KS(eV)   FreeEng(eV)   dDmax  Ef(eV)
siesta:    1    -2206.5369    -2206.5379    -2206.5379  0.0004 -3.8182
siesta:    2    -2206.5369    -2206.5369    -2206.5369  0.0007 -3.8213
siesta:    3    -2206.5369    -2206.5372    -2206.5372  0.0003 -3.8198
siesta:    4    -2206.5369    -2206.5369    -2206.5369  0.0000 -3.8193

siesta: E_KS(eV) =            -2206.5369

siesta: Atomic forces (eV/Ang):
----------------------------------------
   Tot    0.023001    0.023354    0.026167
----------------------------------------
   Max    0.060980
   Res    0.026926    sqrt( Sum f_i^2 / 3N )
----------------------------------------
   Max    0.060980    constrained

Stress-tensor-Voigt (kbar):        0.04        0.02       -0.03       -0.23        0.00       -0.00
(Free)E + p*V (eV/cell)    -2206.5428
Target enthalpy (eV/cell)    -2206.5369

cgvc: Finished line minimization    5.  Mean atomic displacement =    0.0046

* Maximum dynamic memory allocated =    52 MB

siesta:                 ==============================
                            Begin CG move =     13
                        ==============================

outcoor: Atomic coordinates (Ang):                          
   11.52706910    6.32144980    3.46319720   1       1  N
   10.64468218    8.39232314    3.45859396   1       2  N
    7.57746865    8.71468871    3.45285820   1       3  N
    7.51368929    6.40276901    3.46300597   1       4  N
    9.47996084    4.99485105    3.46738512   1       5  N
   11.75200571    7.67805120    3.46328479   2       6  C
    9.64632265    7.44888540    3.45679856   2       7  C
    8.23381926    7.53575706    3.45497804   2       8  C
    8.16208182    5.22824067    3.47003873   2       9  C
   10.16612132    6.14131477    3.46072316   2      10  C
   12.22192990    5.56792055    3.46825481   3      11  H
   12.77995813    8.09039549    3.46830350   3      12  H
    6.55654253    8.68492623    3.40686871   3      13  H
    8.09248881    9.59437115    3.40268684   3      14  H
    7.50971120    4.32617293    3.48004036   3      15  H

outcell: Unit cell vectors (Ang):
       13.914603    0.000000    0.000000
        0.000000   12.852339    0.000000
        0.000000    0.000000    7.295132

outcell: Cell vector modules (Ang)   :   13.914603   12.852339    7.295132
outcell: Cell angles (23,13,12) (deg):     90.0000     90.0000     90.0000
outcell: Cell volume (Ang**3)        :   1304.6264
New_DM. Step:    14
Re-using DM from previous geometry...
Re-using DM without extrapolation (not allowed)
Density Matrix sparsity pattern changed.

siesta: iscf   Eharris(eV)      E_KS(eV)   FreeEng(eV)   dDmax  Ef(eV)
siesta:    1    -2206.5376    -2206.5420    -2206.5420  0.0027 -3.8237
siesta:    2    -2206.5387    -2206.5369    -2206.5369  0.0049 -3.8704
siesta:    3    -2206.5374    -2206.5397    -2206.5397  0.0017 -3.8419
siesta:    4    -2206.5374    -2206.5375    -2206.5375  0.0005 -3.8416
siesta:    5    -2206.5374    -2206.5374    -2206.5374  0.0004 -3.8409
siesta:    6    -2206.5374    -2206.5374    -2206.5374  0.0002 -3.8390
siesta:    7    -2206.5374    -2206.5374    -2206.5374  0.0001 -3.8390
siesta:    8    -2206.5374    -2206.5375    -2206.5375  0.0001 -3.8391

siesta: E_KS(eV) =            -2206.5374

siesta: Atomic forces (eV/Ang):
----------------------------------------
   Tot    0.030353    0.020439    0.025312
----------------------------------------
   Max    0.058360
   Res    0.025384    sqrt( Sum f_i^2 / 3N )
----------------------------------------
   Max    0.058360    constrained

Stress-tensor-Voigt (kbar):        0.04       -0.02       -0.03       -0.25        0.00        0.00
(Free)E + p*V (eV/cell)    -2206.5333
Target enthalpy (eV/cell)    -2206.5374

* Maximum dynamic memory allocated =    52 MB

siesta:                 ==============================
                            Begin CG move =     14
                        ==============================

outcoor: Atomic coordinates (Ang):                          
   11.52714439    6.32113830    3.46309154   1       1  N
   10.64498375    8.39229718    3.45858914   1       2  N
    7.57719837    8.71455875    3.45295011   1       3  N
    7.51380261    6.40273590    3.46297377   1       4  N
    9.47983051    4.99485831    3.46725170   1       5  N
   11.75228034    7.67792577    3.46323851   2       6  C
    9.64637893    7.44878013    3.45677805   2       7  C
    8.23375671    7.53571638    3.45498671   2       8  C
    8.16207996    5.22828067    3.46998803   2       9  C
   10.16604857    6.14110992    3.46061197   2      10  C
   12.22223301    5.56792193    3.46826868   3      11  H
   12.77998852    8.09047719    3.46841273   3      12  H
    6.55643000    8.68502448    3.40673884   3      13  H
    8.09178767    9.59458537    3.40265293   3      14  H
    7.50969136    4.32644802    3.48020456   3      15  H

outcell: Unit cell vectors (Ang):
       13.914603    0.000000    0.000000
        0.000000   12.852339    0.000000
        0.000000    0.000000    7.295132

outcell: Cell vector modules (Ang)   :   13.914603   12.852339    7.295132
outcell: Cell angles (23,13,12) (deg):     90.0000     90.0000     90.0000
outcell: Cell volume (Ang**3)        :   1304.6264
New_DM. Step:    15
Re-using DM from previous geometry...
Re-using DM without extrapolation (not allowed)

siesta: iscf   Eharris(eV)      E_KS(eV)   FreeEng(eV)   dDmax  Ef(eV)
siesta:    1    -2206.5374    -2206.5368    -2206.5368  0.0003 -3.8389
siesta:    2    -2206.5374    -2206.5374    -2206.5374  0.0006 -3.8330
siesta:    3    -2206.5374    -2206.5371    -2206.5371  0.0002 -3.8366
siesta:    4    -2206.5374    -2206.5374    -2206.5374  0.0001 -3.8367

siesta: E_KS(eV) =            -2206.5374

siesta: Atomic forces (eV/Ang):
----------------------------------------
   Tot    0.030453    0.020102    0.025445
----------------------------------------
   Max    0.049074
   Res    0.022259    sqrt( Sum f_i^2 / 3N )
----------------------------------------
   Max    0.049074    constrained

Stress-tensor-Voigt (kbar):        0.03       -0.02       -0.03       -0.24        0.00        0.00
(Free)E + p*V (eV/cell)    -2206.5319
Target enthalpy (eV/cell)    -2206.5374

cgvc: Finished line minimization    6.  Mean atomic displacement =    0.0040

* Maximum dynamic memory allocated =    52 MB

siesta:                 ==============================
                            Begin CG move =     15
                        ==============================

outcoor: Atomic coordinates (Ang):                          
   11.52696895    6.32170909    3.46406034   1       1  N
   10.64481240    8.39226136    3.45849532   1       2  N
    7.57817513    8.71528291    3.45219270   1       3  N
    7.51329066    6.40283305    3.46308878   1       4  N
    9.48065986    4.99592297    3.46818122   1       5  N
   11.75218814    7.67977782    3.46335938   2       6  C
    9.64469279    7.44790551    3.45719095   2       7  C
    8.23302433    7.53572879    3.45506601   2       8  C
    8.16228202    5.22761702    3.47022449   2       9  C
   10.16629247    6.14188428    3.46171304   2      10  C
   12.21962837    5.56926931    3.46823896   3      11  H
   12.77933682    8.09085639    3.46761907   3      12  H
    6.55765409    8.68547317    3.40782261   3      13  H
    8.09738846    9.59332970    3.40291295   3      14  H
    7.50949675    4.32417419    3.47903986   3      15  H

outcell: Unit cell vectors (Ang):
       13.914603    0.000000    0.000000
        0.000000   12.852339    0.000000
        0.000000    0.000000    7.295132

outcell: Cell vector modules (Ang)   :   13.914603   12.852339    7.295132
outcell: Cell angles (23,13,12) (deg):     90.0000     90.0000     90.0000
outcell: Cell volume (Ang**3)        :   1304.6264
New_DM. Step:    16
Re-using DM from previous geometry...
Re-using DM without extrapolation (not allowed)
Density Matrix sparsity pattern changed.

siesta: iscf   Eharris(eV)      E_KS(eV)   FreeEng(eV)   dDmax  Ef(eV)
siesta:    1    -2206.5378    -2206.5369    -2206.5369  0.0022 -3.8277
siesta:    2    -2206.5381    -2206.5375    -2206.5375  0.0026 -3.8436
siesta:    3    -2206.5377    -2206.5374    -2206.5374  0.0008 -3.8347
siesta:    4    -2206.5377    -2206.5376    -2206.5376  0.0002 -3.8302
siesta:    5    -2206.5377    -2206.5376    -2206.5376  0.0002 -3.8303
siesta:    6    -2206.5377    -2206.5376    -2206.5376  0.0001 -3.8310

siesta: E_KS(eV) =            -2206.5376

siesta: Atomic forces (eV/Ang):
----------------------------------------
   Tot    0.032302    0.017494    0.025038
----------------------------------------
   Max    0.063414
   Res    0.025286    sqrt( Sum f_i^2 / 3N )
----------------------------------------
   Max    0.063414    constrained

Stress-tensor-Voigt (kbar):       -0.00       -0.03       -0.03       -0.08        0.00       -0.00
(Free)E + p*V (eV/cell)    -2206.5211
Target enthalpy (eV/cell)    -2206.5376

* Maximum dynamic memory allocated =    52 MB

siesta:                 ==============================
                            Begin CG move =     16
                        ==============================

outcoor: Atomic coordinates (Ang):                          
   11.52700804    6.32158192    3.46384449   1       1  N
   10.64485058    8.39226934    3.45851623   1       2  N
    7.57795751    8.71512157    3.45236145   1       3  N
    7.51340472    6.40281140    3.46306315   1       4  N
    9.48047508    4.99568576    3.46797412   1       5  N
   11.75220868    7.67936518    3.46333245   2       6  C
    9.64506847    7.44810038    3.45709896   2       7  C
    8.23318750    7.53572602    3.45504834   2       8  C
    8.16223700    5.22776488    3.47017181   2       9  C
   10.16623813    6.14171176    3.46146772   2      10  C
   12.22020869    5.56896911    3.46824558   3      11  H
   12.77948202    8.09077190    3.46779590   3      12  H
    6.55738136    8.68537320    3.40758115   3      13  H
    8.09614060    9.59360946    3.40285502   3      14  H
    7.50954011    4.32468080    3.47929936   3      15  H

outcell: Unit cell vectors (Ang):
       13.914603    0.000000    0.000000
        0.000000   12.852339    0.000000
        0.000000    0.000000    7.295132

outcell: Cell vector modules (Ang)   :   13.914603   12.852339    7.295132
outcell: Cell angles (23,13,12) (deg):     90.0000     90.0000     90.0000
outcell: Cell volume (Ang**3)        :   1304.6264
New_DM. Step:    17
Re-using DM from previous geometry...
Re-using DM without extrapolation (not allowed)

siesta: iscf   Eharris(eV)      E_KS(eV)   FreeEng(eV)   dDmax  Ef(eV)
siesta:    1    -2206.5377    -2206.5378    -2206.5378  0.0005 -3.8332
siesta:    2    -2206.5377    -2206.5377    -2206.5377  0.0007 -3.8295
siesta:    3    -2206.5377    -2206.5378    -2206.5378  0.0002 -3.8317
siesta:    4    -2206.5377    -2206.5377    -2206.5377  0.0001 -3.8326

siesta: E_KS(eV) =            -2206.5377

siesta: Atomic forces (eV/Ang):
----------------------------------------
   Tot    0.031979    0.017411    0.025246
----------------------------------------
   Max    0.045466
   Res    0.019295    sqrt( Sum f_i^2 / 3N )
----------------------------------------
   Max    0.045466    constrained

Stress-tensor-Voigt (kbar):        0.01       -0.03       -0.03       -0.12        0.01       -0.00
(Free)E + p*V (eV/cell)    -2206.5241
Target enthalpy (eV/cell)    -2206.5377

cgvc: Finished line minimization    7.  Mean atomic displacement =    0.0031

* Maximum dynamic memory allocated =    52 MB

siesta:                 ==============================
                            Begin CG move =     17
                        ==============================

outcoor: Atomic coordinates (Ang):                          
   11.52614801    6.32310259    3.46475629   1       1  N
   10.64459003    8.39227985    3.45833604   1       2  N
    7.57874779    8.71561303    3.45170484   1       3  N
    7.51324927    6.40177704    3.46305749   1       4  N
    9.48029884    4.99647798    3.46869683   1       5  N
   11.75260550    7.67950383    3.46325382   2       6  C
    9.64503527    7.44773601    3.45763880   2       7  C
    8.23164614    7.53528740    3.45523768   2       8  C
    8.16215575    5.22723480    3.47024217   2       9  C
   10.16602704    6.14163628    3.46252112   2      10  C
   12.21932090    5.56953816    3.46830431   3      11  H
   12.77932906    8.09219728    3.46717912   3      12  H
    6.55836692    8.68693168    3.40850260   3      13  H
    8.10041226    9.59255249    3.40308997   3      14  H
    7.50979621    4.32355033    3.47842280   3      15  H

outcell: Unit cell vectors (Ang):
       13.914603    0.000000    0.000000
        0.000000   12.852339    0.000000
        0.000000    0.000000    7.295132

outcell: Cell vector modules (Ang)   :   13.914603   12.852339    7.295132
outcell: Cell angles (23,13,12) (deg):     90.0000     90.0000     90.0000
outcell: Cell volume (Ang**3)        :   1304.6264
New_DM. Step:    18
Re-using DM from previous geometry...
Re-using DM without extrapolation (not allowed)
Density Matrix sparsity pattern changed.

siesta: iscf   Eharris(eV)      E_KS(eV)   FreeEng(eV)   dDmax  Ef(eV)
siesta:    1    -2206.5380    -2206.5514    -2206.5514  0.0020 -3.8385
siesta:    2    -2206.5382    -2206.5379    -2206.5379  0.0028 -3.8372
siesta:    3    -2206.5380    -2206.5427    -2206.5427  0.0009 -3.8376
siesta:    4    -2206.5379    -2206.5381    -2206.5381  0.0002 -3.8374
siesta:    5    -2206.5380    -2206.5380    -2206.5380  0.0002 -3.8376
siesta:    6    -2206.5380    -2206.5380    -2206.5380  0.0001 -3.8381

siesta: E_KS(eV) =            -2206.5380

siesta: Atomic forces (eV/Ang):
----------------------------------------
   Tot    0.028671    0.016411    0.024803
----------------------------------------
   Max    0.056355
   Res    0.021233    sqrt( Sum f_i^2 / 3N )
----------------------------------------
   Max    0.056355    constrained

Stress-tensor-Voigt (kbar):        0.03       -0.13       -0.03       -0.02        0.00       -0.00
(Free)E + p*V (eV/cell)    -2206.5032
Target enthalpy (eV/cell)    -2206.5380

* Maximum dynamic memory allocated =    52 MB

siesta:                 ==============================
                            Begin CG move =     18
                        ==============================

outcoor: Atomic coordinates (Ang):                          
   11.52477198    6.32553567    3.46621517   1       1  N
   10.64417316    8.39229666    3.45804774   1       2  N
    7.58001225    8.71639937    3.45065426   1       3  N
    7.51300055    6.40012206    3.46304842   1       4  N
    9.48001685    4.99774552    3.46985317   1       5  N
   11.75324040    7.67972567    3.46312800   2       6  C
    9.64498215    7.44715302    3.45850255   2       7  C
    8.22917996    7.53458560    3.45554062   2       8  C
    8.16202574    5.22638668    3.47035473   2       9  C
   10.16568931    6.14151551    3.46420657   2      10  C
   12.21790045    5.57044864    3.46839828   3      11  H
   12.77908434    8.09447789    3.46619228   3      12  H
    6.55994382    8.68942524    3.40997692   3      13  H
    8.10724692    9.59086134    3.40346589   3      14  H
    7.51020596    4.32174157    3.47702031   3      15  H

outcell: Unit cell vectors (Ang):
       13.914603    0.000000    0.000000
        0.000000   12.852339    0.000000
        0.000000    0.000000    7.295132

outcell: Cell vector modules (Ang)   :   13.914603   12.852339    7.295132
outcell: Cell angles (23,13,12) (deg):     90.0000     90.0000     90.0000
outcell: Cell volume (Ang**3)        :   1304.6264
New_DM. Step:    19
Re-using DM from previous geometry...
Re-using DM without extrapolation (not allowed)
Density Matrix sparsity pattern changed.

siesta: iscf   Eharris(eV)      E_KS(eV)   FreeEng(eV)   dDmax  Ef(eV)
siesta:    1    -2206.5375    -2206.5589    -2206.5589  0.0031 -3.8462
siesta:    2    -2206.5380    -2206.5372    -2206.5372  0.0045 -3.8450
siesta:    3    -2206.5374    -2206.5451    -2206.5451  0.0014 -3.8452
siesta:    4    -2206.5374    -2206.5376    -2206.5376  0.0004 -3.8449
siesta:    5    -2206.5373    -2206.5374    -2206.5374  0.0003 -3.8452
siesta:    6    -2206.5374    -2206.5374    -2206.5374  0.0001 -3.8459
siesta:    7    -2206.5374    -2206.5375    -2206.5375  0.0001 -3.8458

siesta: E_KS(eV) =            -2206.5376

siesta: Atomic forces (eV/Ang):
----------------------------------------
   Tot    0.023319    0.019985    0.023617
----------------------------------------
   Max    0.199342
   Res    0.061683    sqrt( Sum f_i^2 / 3N )
----------------------------------------
   Max    0.199342    constrained

Stress-tensor-Voigt (kbar):        0.09       -0.28       -0.03        0.14        0.01       -0.01
(Free)E + p*V (eV/cell)    -2206.4785
Target enthalpy (eV/cell)    -2206.5376

* Maximum dynamic memory allocated =    52 MB

siesta:                 ==============================
                            Begin CG move =     19
                        ==============================

outcoor: Atomic coordinates (Ang):                          
[...]
   12.77668565    8.10337884    3.46322456   3      12  H
    6.56426196    8.70670430    3.41433950   3      13  H
    8.12126489    9.58353245    3.40507008   3      14  H
    7.51229688    4.31849703    3.47344426   3      15  H

outcell: Unit cell vectors (Ang):
       13.914603    0.000000    0.000000
        0.000000   12.852339    0.000000
        0.000000    0.000000    7.295132

outcell: Cell vector modules (Ang)   :   13.914603   12.852339    7.295132
outcell: Cell angles (23,13,12) (deg):     90.0000     90.0000     90.0000
outcell: Cell volume (Ang**3)        :   1304.6264
New_DM. Step:    29
Re-using DM from previous geometry...
Re-using DM without extrapolation (not allowed)
Density Matrix sparsity pattern changed.

siesta: iscf   Eharris(eV)      E_KS(eV)   FreeEng(eV)   dDmax  Ef(eV)
siesta:    1    -2206.5394    -2206.5468    -2206.5468  0.0067 -3.8270
siesta:    2    -2206.5399    -2206.5389    -2206.5389  0.0045 -3.8428
siesta:    3    -2206.5393    -2206.5411    -2206.5411  0.0019 -3.8355
siesta:    4    -2206.5392    -2206.5392    -2206.5392  0.0005 -3.8313
siesta:    5    -2206.5392    -2206.5392    -2206.5392  0.0005 -3.8313
siesta:    6    -2206.5392    -2206.5391    -2206.5391  0.0002 -3.8315
siesta:    7    -2206.5392    -2206.5392    -2206.5392  0.0001 -3.8316
siesta:    8    -2206.5392    -2206.5392    -2206.5392  0.0001 -3.8316

siesta: E_KS(eV) =            -2206.5392

siesta: Atomic forces (eV/Ang):
----------------------------------------
   Tot    0.037470    0.017656    0.022607
----------------------------------------
   Max    0.064474
   Res    0.022685    sqrt( Sum f_i^2 / 3N )
----------------------------------------
   Max    0.064474    constrained

Stress-tensor-Voigt (kbar):        0.22        0.08       -0.03        0.19        0.01       -0.01
(Free)E + p*V (eV/cell)    -2206.6130
Target enthalpy (eV/cell)    -2206.5392

cgvc: Finished line minimization   11.  Mean atomic displacement =    0.0069

* Maximum dynamic memory allocated =    53 MB

siesta:                 ==============================
                            Begin CG move =     29
                        ==============================

outcoor: Atomic coordinates (Ang):                          
   11.52710455    6.32486317    3.47310853   1       1  N
   10.63955214    8.39372663    3.45643107   1       2  N
    7.58737525    8.71549101    3.44584584   1       3  N
    7.50918540    6.39755340    3.46216146   1       4  N
    9.47933909    4.99500734    3.47530308   1       5  N
   11.74954359    7.68314554    3.46217169   2       6  C
    9.64303896    7.44631345    3.46348046   2       7  C
    8.22942008    7.53050025    3.45676542   2       8  C
    8.16120465    5.22381135    3.47038030   2       9  C
   10.16573961    6.14180171    3.47230365   2      10  C
   12.22070851    5.57276017    3.47021927   3      11  H
   12.77366462    8.10597206    3.46171046   3      12  H
    6.56695246    8.71521231    3.41630139   3      13  H
    8.12730618    9.58060492    3.40600002   3      14  H
    7.51287190    4.31726167    3.47187221   3      15  H

outcell: Unit cell vectors (Ang):
       13.914603    0.000000    0.000000
        0.000000   12.852339    0.000000
        0.000000    0.000000    7.295132

outcell: Cell vector modules (Ang)   :   13.914603   12.852339    7.295132
outcell: Cell angles (23,13,12) (deg):     90.0000     90.0000     90.0000
outcell: Cell volume (Ang**3)        :   1304.6264
New_DM. Step:    30
Re-using DM from previous geometry...
Re-using DM without extrapolation (not allowed)
Density Matrix sparsity pattern changed.

siesta: iscf   Eharris(eV)      E_KS(eV)   FreeEng(eV)   dDmax  Ef(eV)
siesta:    1    -2206.5397    -2206.5553    -2206.5553  0.0047 -3.8352
siesta:    2    -2206.5402    -2206.5392    -2206.5392  0.0058 -3.8325
siesta:    3    -2206.5395    -2206.5460    -2206.5460  0.0019 -3.8336
siesta:    4    -2206.5395    -2206.5400    -2206.5400  0.0003 -3.8329
siesta:    5    -2206.5395    -2206.5398    -2206.5398  0.0003 -3.8330
siesta:    6    -2206.5396    -2206.5396    -2206.5396  0.0001 -3.8335
siesta:    7    -2206.5395    -2206.5397    -2206.5397  0.0001 -3.8337

siesta: E_KS(eV) =            -2206.5397

siesta: Atomic forces (eV/Ang):
----------------------------------------
   Tot    0.038931    0.018536    0.021662
----------------------------------------
   Max    0.059346
   Res    0.021346    sqrt( Sum f_i^2 / 3N )
----------------------------------------
   Max    0.059346    constrained

Stress-tensor-Voigt (kbar):        0.15        0.06       -0.03        0.15        0.00       -0.00
(Free)E + p*V (eV/cell)    -2206.5864
Target enthalpy (eV/cell)    -2206.5397

* Maximum dynamic memory allocated =    53 MB

siesta:                 ==============================
                            Begin CG move =     30
                        ==============================

outcoor: Atomic coordinates (Ang):                          
   11.52682533    6.32480517    3.47282586   1       1  N
   10.63987565    8.39372733    3.45648398   1       2  N
    7.58707660    8.71550772    3.44604862   1       3  N
    7.50923803    6.39766076    3.46219922   1       4  N
    9.47939296    4.99504556    3.47505257   1       5  N
   11.74977242    7.68306261    3.46218407   2       6  C
    9.64305668    7.44648303    3.46328351   2       7  C
    8.22948720    7.53048999    3.45674442   2       8  C
    8.16120926    5.22395432    3.47036040   2       9  C
   10.16549274    6.14185345    3.47195901   2      10  C
   12.22061346    5.57260783    3.47011710   3      11  H
   12.77407474    8.10562001    3.46191601   3      12  H
    6.56658721    8.71405729    3.41603504   3      13  H
    8.12648603    9.58100235    3.40587378   3      14  H
    7.51279384    4.31742938    3.47208563   3      15  H

outcell: Unit cell vectors (Ang):
       13.914603    0.000000    0.000000
        0.000000   12.852339    0.000000
        0.000000    0.000000    7.295132

outcell: Cell vector modules (Ang)   :   13.914603   12.852339    7.295132
outcell: Cell angles (23,13,12) (deg):     90.0000     90.0000     90.0000
outcell: Cell volume (Ang**3)        :   1304.6264
New_DM. Step:    31
Re-using DM from previous geometry...
Re-using DM without extrapolation (not allowed)
Density Matrix sparsity pattern changed.

siesta: iscf   Eharris(eV)      E_KS(eV)   FreeEng(eV)   dDmax  Ef(eV)
siesta:    1    -2206.5395    -2206.5376    -2206.5376  0.0006 -3.8332
siesta:    2    -2206.5395    -2206.5395    -2206.5395  0.0008 -3.8333
siesta:    3    -2206.5395    -2206.5386    -2206.5386  0.0003 -3.8333
siesta:    4    -2206.5395    -2206.5394    -2206.5394  0.0000 -3.8334

siesta: E_KS(eV) =            -2206.5395

siesta: Atomic forces (eV/Ang):
----------------------------------------
   Tot    0.037773    0.017948    0.021988
----------------------------------------
   Max    0.045635
   Res    0.018241    sqrt( Sum f_i^2 / 3N )
----------------------------------------
   Max    0.045635    constrained

Stress-tensor-Voigt (kbar):        0.16        0.06       -0.03        0.15        0.01       -0.00
(Free)E + p*V (eV/cell)    -2206.5911
Target enthalpy (eV/cell)    -2206.5395

cgvc: Finished line minimization   12.  Mean atomic displacement =    0.0059

* Maximum dynamic memory allocated =    53 MB

siesta:                 ==============================
                            Begin CG move =     31
                        ==============================

outcoor: Atomic coordinates (Ang):                          
   11.52738287    6.32616737    3.47441424   1       1  N
   10.63772534    8.39230029    3.45637976   1       2  N
    7.58911861    8.71651302    3.44491017   1       3  N
    7.50978897    6.39726294    3.46193239   1       4  N
    9.48003362    4.99531708    3.47676594   1       5  N
   11.74867313    7.68426167    3.46237443   2       6  C
    9.64204860    7.44495864    3.46423327   2       7  C
    8.22952654    7.52881528    3.45665350   2       8  C
    8.16116044    5.22277513    3.47069278   2       9  C
   10.16709373    6.14047442    3.47398227   2      10  C
   12.22240789    5.57335194    3.47103198   3      11  H
   12.77090039    8.10702838    3.46054648   3      12  H
    6.56812063    8.72113919    3.41754250   3      13  H
    8.13198987    9.58035573    3.40681259   3      14  H
    7.51343297    4.31746259    3.47090532   3      15  H

outcell: Unit cell vectors (Ang):
       13.914603    0.000000    0.000000
        0.000000   12.852339    0.000000
        0.000000    0.000000    7.295132

outcell: Cell vector modules (Ang)   :   13.914603   12.852339    7.295132
outcell: Cell angles (23,13,12) (deg):     90.0000     90.0000     90.0000
outcell: Cell volume (Ang**3)        :   1304.6264
New_DM. Step:    32
Re-using DM from previous geometry...
Re-using DM without extrapolation (not allowed)
Density Matrix sparsity pattern changed.

siesta: iscf   Eharris(eV)      E_KS(eV)   FreeEng(eV)   dDmax  Ef(eV)
siesta:    1    -2206.5398    -2206.5549    -2206.5549  0.0035 -3.8287
siesta:    2    -2206.5400    -2206.5395    -2206.5395  0.0051 -3.8380
siesta:    3    -2206.5397    -2206.5436    -2206.5436  0.0023 -3.8337
siesta:    4    -2206.5397    -2206.5399    -2206.5399  0.0003 -3.8305
siesta:    5    -2206.5397    -2206.5398    -2206.5398  0.0002 -3.8306
siesta:    6    -2206.5397    -2206.5397    -2206.5397  0.0002 -3.8309
siesta:    7    -2206.5397    -2206.5398    -2206.5398  0.0001 -3.8311
siesta:    8    -2206.5397    -2206.5398    -2206.5398  0.0001 -3.8311

siesta: E_KS(eV) =            -2206.5397

siesta: Atomic forces (eV/Ang):
----------------------------------------
   Tot    0.039234    0.020052    0.021078
----------------------------------------
   Max    0.061773
   Res    0.027709    sqrt( Sum f_i^2 / 3N )
----------------------------------------
   Max    0.061773    constrained

Stress-tensor-Voigt (kbar):        0.06       -0.02       -0.03       -0.04        0.00       -0.00
(Free)E + p*V (eV/cell)    -2206.5400
Target enthalpy (eV/cell)    -2206.5397

* Maximum dynamic memory allocated =    53 MB

siesta:                 ==============================
                            Begin CG move =     32
                        ==============================

outcoor: Atomic coordinates (Ang):                          
   11.52719483    6.32570793    3.47387852   1       1  N
   10.63845059    8.39278159    3.45641491   1       2  N
    7.58842989    8.71617395    3.44529414   1       3  N
    7.50960315    6.39739711    3.46202238   1       4  N
    9.47981754    4.99522550    3.47618806   1       5  N
   11.74904389    7.68385725    3.46231023   2       6  C
    9.64238860    7.44547278    3.46391294   2       7  C
    8.22951327    7.52938012    3.45668417   2       8  C
    8.16117691    5.22317285    3.47058068   2       9  C
   10.16655375    6.14093954    3.47329987   2      10  C
   12.22180267    5.57310097    3.47072341   3      11  H
   12.77197102    8.10655337    3.46100839   3      12  H
    6.56760345    8.71875063    3.41703407   3      13  H
    8.13013356    9.58057382    3.40649595   3      14  H
    7.51321740    4.31745139    3.47130341   3      15  H

outcell: Unit cell vectors (Ang):
       13.914603    0.000000    0.000000
        0.000000   12.852339    0.000000
        0.000000    0.000000    7.295132

outcell: Cell vector modules (Ang)   :   13.914603   12.852339    7.295132
outcell: Cell angles (23,13,12) (deg):     90.0000     90.0000     90.0000
outcell: Cell volume (Ang**3)        :   1304.6264
New_DM. Step:    33
Re-using DM from previous geometry...
Re-using DM without extrapolation (not allowed)
Density Matrix sparsity pattern changed.

siesta: iscf   Eharris(eV)      E_KS(eV)   FreeEng(eV)   dDmax  Ef(eV)
siesta:    1    -2206.5397    -2206.5345    -2206.5345  0.0012 -3.8326
siesta:    2    -2206.5397    -2206.5397    -2206.5397  0.0017 -3.8294
siesta:    3    -2206.5396    -2206.5383    -2206.5383  0.0008 -3.8309
siesta:    4    -2206.5397    -2206.5395    -2206.5395  0.0001 -3.8320

siesta: E_KS(eV) =            -2206.5396

siesta: Atomic forces (eV/Ang):
----------------------------------------
   Tot    0.038746    0.019334    0.021307
----------------------------------------
   Max    0.038589
   Res    0.017181    sqrt( Sum f_i^2 / 3N )
----------------------------------------
   Max    0.038589    constrained

Stress-tensor-Voigt (kbar):        0.10        0.00       -0.03        0.03        0.01       -0.00
(Free)E + p*V (eV/cell)    -2206.5590
Target enthalpy (eV/cell)    -2206.5396

* Maximum dynamic memory allocated =    53 MB

outcoor: Relaxed atomic coordinates (Ang):                  
   11.52719483    6.32570793    3.47387852   1       1  N
   10.63845059    8.39278159    3.45641491   1       2  N
    7.58842989    8.71617395    3.44529414   1       3  N
    7.50960315    6.39739711    3.46202238   1       4  N
    9.47981754    4.99522550    3.47618806   1       5  N
   11.74904389    7.68385725    3.46231023   2       6  C
    9.64238860    7.44547278    3.46391294   2       7  C
    8.22951327    7.52938012    3.45668417   2       8  C
    8.16117691    5.22317285    3.47058068   2       9  C
   10.16655375    6.14093954    3.47329987   2      10  C
   12.22180267    5.57310097    3.47072341   3      11  H
   12.77197102    8.10655337    3.46100839   3      12  H
    6.56760345    8.71875063    3.41703407   3      13  H
    8.13013356    9.58057382    3.40649595   3      14  H
    7.51321740    4.31745139    3.47130341   3      15  H

coxmol: Writing XMOL coordinates into file Adenine.lda.DZP.xyz                                             

siesta: Program's energy decomposition (eV):
siesta: Ebs     =      -686.520480
siesta: Eions   =      3453.429722
siesta: Ena     =       643.715783
siesta: Ekin    =      1568.439681
siesta: Enl     =      -297.458605
siesta: DEna    =       -54.272791
siesta: DUscf   =         5.832304
siesta: DUext   =         0.000000
siesta: Exc     =      -619.366223
siesta: eta*DQ  =         0.000000
siesta: Emadel  =         0.000000
siesta: Emeta   =         0.000000
siesta: Emolmec =         0.000000
siesta: Ekinion =         0.000000
siesta: Eharris =     -2206.539674
siesta: Etot    =     -2206.539573
siesta: FreeEng =     -2206.539573

siesta: Final energy (eV):
siesta:  Band Struct. =    -686.520480
siesta:       Kinetic =    1568.439681
siesta:       Hartree =    4563.222411
siesta:    Ext. field =       0.000000
siesta:   Exch.-corr. =    -619.366223
siesta:  Ion-electron =  -10571.077042
siesta:       Ion-ion =    2852.241601
siesta:       Ekinion =       0.000000
siesta:         Total =   -2206.539573

siesta: Stress tensor (static) (eV/Ang**3):
siesta:     0.000063    0.000018   -0.000001
siesta:     0.000018    0.000003    0.000003
siesta:    -0.000002    0.000003   -0.000020

siesta: Cell volume =       1304.626378 Ang**3

siesta: Pressure (static):
siesta:                Solid            Molecule  Units
siesta:          -0.00000016         -0.00000023  Ry/Bohr**3
siesta:          -0.00001489         -0.00002103  eV/Ang**3
siesta:          -0.02385608         -0.03369548  kBar
(Free)E+ p_basis*V_orbitals  =       -2199.910344
(Free)Eharris+ p_basis*V_orbitals  =       -2199.910468

siesta: Electric dipole (a.u.)  =    0.751229    0.507593   -0.038978
siesta: Electric dipole (Debye) =    1.909434    1.290174   -0.099072

* Maximum dynamic memory allocated : Node    0 =    53 MB

* Maximum memory occured during poison                        

timer: CPU execution times:
timer:  Routine       Calls   Time/call    Tot.time        %
timer:  siesta            1    1067.482    1067.482   100.00
timer:  Setup             1       0.797       0.797     0.07
timer:  bands             1       0.001       0.001     0.00
timer:  writewave         1       0.001       0.001     0.00
timer:  KSV_init          1       0.000       0.000     0.00
timer:  IterMD           33      32.262    1064.658    99.74
timer:  hsparse          33       0.020       0.671     0.06
timer:  overlap          33       0.099       3.276     0.31
timer:  IterSCF         265       3.170     840.179    78.71
timer:  kinefsm          66       0.075       4.919     0.46
timer:  nlefsm           66       0.591      38.998     3.65
timer:  DHSCF           299       3.346    1000.452    93.72
timer:  DHSCF1            1       0.112       0.112     0.01
timer:  DHSCF2           33       2.392      78.933     7.39
timer:  REORD          2460       0.002       5.923     0.55
timer:  POISON          332       0.180      59.673     5.59
timer:  DHSCF3          299       2.707     809.423    75.83
timer:  rhoofd          299       1.591     475.789    44.57
timer:  cellXC          299       0.129      38.474     3.60
timer:  vmat            298       0.752     224.054    20.99
timer:  MolMec           66       0.000       0.001     0.00
timer:  diagon          265       0.053      13.916     1.30
timer:  r-eigvec        265       0.049      13.020     1.22
timer:  r-buildHS       265       0.000       0.079     0.01
timer:  rdiag           265       0.049      12.937     1.21
timer:  rdiag1          265       0.002       0.514     0.05
timer:  rdiag2          265       0.006       1.604     0.15
timer:  rdiag3          265       0.035       9.232     0.86
timer:  rdiag4          265       0.006       1.545     0.14
timer:  r-buildD        265       0.003       0.828     0.08
timer:  DHSCF4           33       3.341     110.260    10.33
timer:  dfscf            33       3.050     100.641     9.43
timer:  overfsm          33       0.046       1.530     0.14
timer:  optical           1       0.001       0.001     0.00
  

elaps: ELAPSED times:
elaps:  Routine       Calls   Time/call    Tot.time        %
elaps:  siesta            1    1071.740    1071.740   100.00
elaps:  Setup             1       0.845       0.845     0.08
elaps:  bands             1       0.001       0.001     0.00
elaps:  writewave         1       0.001       0.001     0.00
elaps:  KSV_init          1       0.000       0.000     0.00
elaps:  IterMD           33      32.389    1068.852    99.73
elaps:  hsparse          33       0.020       0.671     0.06
elaps:  overlap          33       0.100       3.299     0.31
elaps:  IterSCF         265       3.184     843.703    78.72
elaps:  kinefsm          66       0.075       4.952     0.46
elaps:  nlefsm           66       0.592      39.101     3.65
elaps:  DHSCF           299       3.357    1003.856    93.67
elaps:  DHSCF1            1       0.111       0.111     0.01
elaps:  DHSCF2           33       2.399      79.166     7.39
elaps:  REORD          2460       0.002       5.954     0.56
elaps:  POISON          332       0.180      59.886     5.59
elaps:  DHSCF3          299       2.717     812.260    75.79
elaps:  rhoofd          299       1.597     477.532    44.56
elaps:  cellXC          299       0.129      38.608     3.60
elaps:  vmat            298       0.754     224.777    20.97
elaps:  MolMec           66       0.000       0.001     0.00
elaps:  diagon          265       0.053      13.952     1.30
elaps:  r-eigvec        265       0.049      13.058     1.22
elaps:  r-buildHS       265       0.000       0.079     0.01
elaps:  rdiag           265       0.049      12.977     1.21
elaps:  rdiag1          265       0.002       0.526     0.05
elaps:  rdiag2          265       0.006       1.620     0.15
elaps:  rdiag3          265       0.035       9.250     0.86
elaps:  rdiag4          265       0.006       1.552     0.14
elaps:  r-buildD        265       0.003       0.835     0.08
elaps:  DHSCF4           33       3.350     110.554    10.32
elaps:  dfscf            33       3.058     100.901     9.41
elaps:  overfsm          33       0.046       1.533     0.14
elaps:  optical           1       0.000       0.000     0.00
  
>> End of run:  26-APR-2013  13:35:24
