Siesta Version:                                        siesta-3.2
Architecture  : x86_64-unknown-linux-gnu--unknown
Compiler flags: f95 -g -O2
SERIAL version
Siesta Version:                                        siesta-3.2
Architecture  : x86_64-unknown-linux-gnu--unknown
Compiler flags: f95 -g -O2
SERIAL version

* Running in serial mode

* Running in serial mode
>> Start of run:  10-MAY-2013   0:07:58

                           ***********************       
                           *  WELCOME TO SIESTA  *       
                           ***********************       

reinit: Reading from standard input
************************** Dump of input data file ****************************
# FDF for silicon
SystemName             silicon          # Descriptive name of the system
SystemLabel            si          # Short name for naming files
NumberOfAtoms 8
NumberOfSpecies 1
%block ChemicalSpeciesLabel
1 14 Si
%endblock ChemicalSpeciesLabel
LatticeConstant  5.25 Ang
##Basis set Definition##
PAO.BasisType          split        # Type of PAO basis set
PAO.EnergyShift        50 meV
PAO.BasisSize          DZP          # (DZP) Double-z + polarization
#%block LatticeVectors
#0.500 0.500 0.000
#0.500 0.000 0.500
#0.000 0.500 0.500
#%endblock LatticeVectors
AtomicCoordinatesFormat NotScaledCartesianAng
%block AtomicCoordinatesAndAtomicSpecies
	0.00000000	0.00000000	0.00000000  1 Si  1
	1.36000000	1.36000000	1.36000000  1 Si  2
	2.72000000	2.72000000	0.00000000  1 Si  3
	4.08000000	4.08000000	1.36000000  1 Si  4
	2.72000000	0.00000000	2.72000000  1 Si  5
	4.08000000	1.36000000	4.08000000  1 Si  6
	0.00000000	2.72000000	2.72000000  1 Si  7
	1.36000000	4.08000000	4.08000000  1 Si  8
%endblock AtomicCoordinatesAndAtomicSpecies
MeshCutoff 100.0 Ry # 100, 120, 180, 260
kgrid_cutoff 30.0 Bohr # 30, 35, 40, 45
DM.Mixingweight  0.3
DM.NumberPulay    3
DM.Tolerance      1.d-3
DM.UseSaveDM      true
ElectronicTemperature 25 meV
SolutionMethod    diagon
XC.functional     LDA	    # Local Density Approximation
XC.authors        CA           # Ceperley-Alder
SpinPolarized     false
MD.TypeOfRun           CG           # Type of dynamics:
MD.VariableCell        true
MD.NumCGsteps          100          # Number of CG steps for coordinate optimization
MD.MaxCGDispl          0.2 Bohr     # Maximum atomic displacement
                                    #   in one CG step (Bohr)
MD.MaxForceTol         0.04 eV/Ang  # Tolerance in the maximum
                                    #   atomic force (Ry/Bohr)
				
##Output Specification##
WriteMDhistory         true         # Trajectory information
WriteCoorStep          true
WriteCoorXmol          true
WriteMDXmol            true
WriteEigenvalues true
WriteKbands      true
WriteBands       true
WriteWaveFunctions true
WriteMullikenPoP   1
%block BandLines
1	1.000	1.000 1.000 L
25	0.000	0.000	0.000 \Gamma
30	2.000	0.000	0.000 X
10	2.000	0.500	0.500 U
35	0.000	0.000	0.000 \Gamma
%endblock BandLines
%block WaveFuncKPoints
0.0 0.0 0.0 from 1 to 50 # > 16 = 4/2*8 (Valenzelektronen/2, Atomzahl ...)
%endblock WaveFuncKpoints
************************** End of input data file *****************************

reinit: -----------------------------------------------------------------------
reinit: System Name: silicon
reinit: -----------------------------------------------------------------------
reinit: System Label: si                                                          
reinit: -----------------------------------------------------------------------
>> Start of run:  10-MAY-2013   0:07:58

                           ***********************       
                           *  WELCOME TO SIESTA  *       
                           ***********************       

reinit: Reading from standard input
************************** Dump of input data file ****************************
************************** End of input data file *****************************

reinit: -----------------------------------------------------------------------
reinit: System Name: 
reinit: -----------------------------------------------------------------------
reinit: System Label: siesta                                                      
reinit: -----------------------------------------------------------------------

initatom: Reading input for the pseudopotentials and atomic orbitals ----------
No species found!!!
ERROR STOP from Node:    0

initatom: Reading input for the pseudopotentials and atomic orbitals ----------
 Species number:            1  Label: Si Atomic number:          14
Ground state valence configuration:   3s02  3p02
Reading pseudopotential information in formatted form from Si.psf

Valence configuration for pseudopotential generation:
3s( 2.00) rc: 1.75
3p( 2.00) rc: 1.94
3d( 0.00) rc: 2.09
4f( 0.00) rc: 2.09
For Si, standard SIESTA heuristics set lmxkb to 3
 (one more than the basis l, including polarization orbitals).
Use PS.lmax or PS.KBprojectors blocks to override.

<basis_specs>
===============================================================================
Si                   Z=  14    Mass=  28.090        Charge= 0.17977+309
Lmxo=1 Lmxkb= 3    BasisType=split      Semic=F
L=0  Nsemic=0  Cnfigmx=3
          n=1  nzeta=2  polorb=0
            splnorm:   0.15000    
               vcte:    0.0000    
               rinn:    0.0000    
                rcs:    0.0000      0.0000    
            lambdas:    1.0000      1.0000    
L=1  Nsemic=0  Cnfigmx=3
          n=1  nzeta=2  polorb=1
            splnorm:   0.15000    
               vcte:    0.0000    
               rinn:    0.0000    
                rcs:    0.0000      0.0000    
            lambdas:    1.0000      1.0000    
-------------------------------------------------------------------------------
L=0  Nkbl=1  erefs: 0.17977+309
L=1  Nkbl=1  erefs: 0.17977+309
L=2  Nkbl=1  erefs: 0.17977+309
L=3  Nkbl=1  erefs: 0.17977+309
===============================================================================
</basis_specs>

atom: Called for Si                    (Z =  14)

read_vps: Pseudopotential generation method:
read_vps: ATM3      Troullier-Martins                       
Total valence charge:    4.00000

xc_check: Exchange-correlation functional:
xc_check: Ceperley-Alder
V l=0 = -2*Zval/r beyond r=  2.5494
V l=1 = -2*Zval/r beyond r=  2.5494
V l=2 = -2*Zval/r beyond r=  2.5494
V l=3 = -2*Zval/r beyond r=  2.5494
All V_l potentials equal beyond r=  2.0613
This should be close to max(r_c) in ps generation
All pots = -2*Zval/r beyond r=  2.5494

VLOCAL1: 99.0% of the norm of Vloc inside     10.216 Ry
VLOCAL1: 99.9% of the norm of Vloc inside     23.282 Ry
atom: Maximum radius for 4*pi*r*r*local-pseudopot. charge    2.45560
atom: Maximum radius for r*vlocal+2*Zval:    2.14012
GHOST: No ghost state for L =  0
GHOST: No ghost state for L =  1
GHOST: No ghost state for L =  2
GHOST: No ghost state for L =  3

KBgen: Kleinman-Bylander projectors: 
   l= 0   rc=  2.782581   el= -0.796617   Ekb=  4.840502   kbcos=  0.288423
   l= 1   rc=  2.888916   el= -0.307040   Ekb=  1.512733   kbcos=  0.296968
   l= 2   rc=  2.962054   el=  0.002313   Ekb= -2.156507   kbcos= -0.061834
   l= 3   rc=  3.192765   el=  0.003402   Ekb= -0.600958   kbcos= -0.007408

KBgen: Total number of  Kleinman-Bylander projectors:   16
atom: -------------------------------------------------------------------------

atom: SANKEY-TYPE ORBITALS:
atom: Selected multiple-zeta basis: split     

SPLIT: Orbitals with angular momentum L= 0

SPLIT: Basis orbitals for state 3s

SPLIT: PAO cut-off radius determined from an
SPLIT: energy shift=  0.003675 Ry

   izeta = 1
                 lambda =    1.000000
                     rc =    6.116033
                 energy =   -0.793486
                kinetic =    0.528761
    potential(screened) =   -1.322246
       potential(ionic) =   -3.766038

   izeta = 2
                 rmatch =    4.530823
              splitnorm =    0.150000
                 energy =   -0.697320
                kinetic =    0.853435
    potential(screened) =   -1.550756
       potential(ionic) =   -4.120809

SPLIT: Orbitals with angular momentum L= 1

SPLIT: Basis orbitals for state 3p

SPLIT: PAO cut-off radius determined from an
SPLIT: energy shift=  0.003675 Ry

   izeta = 1
                 lambda =    1.000000
                     rc =    7.853192
                 energy =   -0.303674
                kinetic =    0.798475
    potential(screened) =   -1.102149
       potential(ionic) =   -3.307324

   izeta = 2
                 rmatch =    5.397360
              splitnorm =    0.150000
                 energy =   -0.229357
                kinetic =    1.170483
    potential(screened) =   -1.399841
       potential(ionic) =   -3.814095

POLgen: Perturbative polarization orbital with L=  2

POLgen: Polarization orbital for state 3p

   izeta = 1
                     rc =    7.853192
                 energy =    0.331669
                kinetic =    1.088595
    potential(screened) =   -0.756926
       potential(ionic) =   -2.714870
atom: Total number of Sankey-type orbitals: 13

atm_pop: Valence configuration (for local Pseudopot. screening):
 3s( 2.00)                                                            
 3p( 2.00)                                                            
Vna: chval, zval:    4.00000   4.00000

Vna:  Cut-off radius for the neutral-atom potential:   7.853192

atom: _________________________________________________________________________

prinput: Basis input ----------------------------------------------------------

PAO.BasisType split     

%block ChemicalSpeciesLabel
    1   14 Si                      # Species index, atomic number, species label
%endblock ChemicalSpeciesLabel

%block PAO.Basis                 # Define Basis set
Si                    2                    # Species label, number of l-shells
 n=3   0   2                         # n, l, Nzeta 
   6.116      4.531   
   1.000      1.000   
 n=3   1   2 P   1                   # n, l, Nzeta, Polarization, NzetaPol
   7.853      5.397   
   1.000      1.000   
%endblock PAO.Basis

prinput: ----------------------------------------------------------------------

coor:   Atomic-coordinates input format  =     Cartesian coordinates
coor:                                          (in Angstroms)

siesta: Atomic coordinates (Bohr) and species
siesta:      0.00000   0.00000   0.00000  1        1
siesta:      2.57003   2.57003   2.57003  1        2
siesta:      5.14006   5.14006   0.00000  1        3
siesta:      7.71009   7.71009   2.57003  1        4
siesta:      5.14006   0.00000   5.14006  1        5
siesta:      7.71009   2.57003   7.71009  1        6
siesta:      0.00000   5.14006   5.14006  1        7
siesta:      2.57003   7.71009   7.71009  1        8

siesta: System type = bulk      

initatomlists: Number of atoms, orbitals, and projectors:      8   104   128

siesta: ******************** Simulation parameters ****************************
siesta:
siesta: The following are some of the parameters of the simulation.
siesta: A complete list of the parameters used, including default values,
siesta: can be found in file out.fdf
siesta:
redata: Non-Collinear-spin run           =     F
redata: SpinPolarized (Up/Down) run      =     F
redata: Number of spin components        =     1
redata: Long output                      =     F
redata: Number of Atomic Species         =        1
redata: Charge density info will appear in .RHO file
redata: Write Mulliken Pop.              =     Atomic and Orbital charges
redata: Mesh Cutoff                      =   100.0000  Ry
redata: Net charge of the system         =     0.0000 |e|
redata: Max. number of SCF Iter          =       50
redata: Performing Pulay mixing using    =     3 iterations
redata: Mix DM in first SCF step ?       =     F
redata: Write Pulay info on disk?        =     F
redata: Discard 1st Pulay DM after  kick =     F
redata: New DM Mixing Weight             =     0.3000
redata: New DM Occupancy tolerance       = 0.000000000001
redata: No kicks to SCF
redata: DM Mixing Weight for Kicks       =     0.5000
redata: DM Tolerance for SCF             =     0.001000
redata: Require Energy convergence for SCF =     F
redata: DM Energy tolerance for SCF      =     0.000100 eV
redata: Require Harris convergence for SCF =     F
redata: DM Harris energy tolerance for SCF =     0.000100 eV
redata: Using Saved Data (generic)   =     F
redata: Use continuation files for DM    =     T
redata: Neglect nonoverlap interactions  =     F
redata: Method of Calculation            =     Diagonalization
redata: Divide and Conquer               =     T
redata: Electronic Temperature           =     0.0018  Ry
redata: Fix the spin of the system       =     F
redata: Dynamics option                  =     CG coord. optimization
redata: Variable cell                    =     T
redata: Use continuation files for CG    =     F
redata: Max atomic displ per move        =     0.2000  Bohr
redata: Maximum number of CG moves       =      100
redata: Force tolerance                  =     0.0016  Ry/Bohr
redata: Stress tolerance                 =     1.0000  GPa
redata: ***********************************************************************
Total number of electrons:    32.000000
Total ionic charge:    32.000000
 Kpoints in:          196 . Kpoints trimmed:          172

siesta: k-grid: Number of k-points =   172
siesta: k-grid: Cutoff (effective) =    18.375 Ang
siesta: k-grid: Supercell and displacements
siesta: k-grid:    0   7   0      0.000
siesta: k-grid:    0   0   7      0.000
siesta: k-grid:    7   0   0      0.000
Naive supercell factors:     5    5    5

superc: Internal auxiliary supercell:     5 x     5 x     5  =     125
superc: Number of atoms, orbitals, and projectors:   1000  13000  16000

* Maximum dynamic memory allocated =     2 MB

siesta:                 ==============================
                            Begin CG move =      0
                        ==============================

outcoor: Atomic coordinates (Ang):                          
    0.00000000    0.00000000    0.00000000   1       1  Si
    1.36000000    1.36000000    1.36000000   1       2  Si
    2.72000000    2.72000000    0.00000000   1       3  Si
    4.08000000    4.08000000    1.36000000   1       4  Si
    2.72000000    0.00000000    2.72000000   1       5  Si
    4.08000000    1.36000000    4.08000000   1       6  Si
    0.00000000    2.72000000    2.72000000   1       7  Si
    1.36000000    4.08000000    4.08000000   1       8  Si

superc: Internal auxiliary supercell:     5 x     5 x     5  =     125
superc: Number of atoms, orbitals, and projectors:   1000  13000  16000

outcell: Unit cell vectors (Ang):
        5.250000    0.000000    0.000000
        0.000000    5.250000    0.000000
        0.000000    0.000000    5.250000

outcell: Cell vector modules (Ang)   :    5.250000    5.250000    5.250000
outcell: Cell angles (23,13,12) (deg):     90.0000     90.0000     90.0000
outcell: Cell volume (Ang**3)        :    144.7031
New_DM. Step:     1
Initializing Density Matrix...

InitMesh: MESH =    32 x    32 x    32 =       32768
InitMesh: Mesh cutoff (required, used) =   100.000   102.679 Ry

* Maximum dynamic memory allocated =    79 MB

stepf: Fermi-Dirac step function

siesta: Program's energy decomposition (eV):
siesta: Ebs     =      -371.621507
siesta: Eions   =      1510.441798
siesta: Ena     =       458.144791
siesta: Ekin    =       288.938730
siesta: Enl     =       140.422919
siesta: DEna    =         0.000001
siesta: DUscf   =         0.000000
siesta: DUext   =         0.000000
siesta: Exc     =      -260.679832
siesta: eta*DQ  =         0.000000
siesta: Emadel  =         0.000000
siesta: Emeta   =         0.000000
siesta: Emolmec =         0.000000
siesta: Ekinion =         0.000000
siesta: Eharris =      -861.172526
siesta: Etot    =      -883.615189
siesta: FreeEng =      -883.615189

siesta: iscf   Eharris(eV)      E_KS(eV)   FreeEng(eV)   dDmax  Ef(eV)
siesta:    1     -861.1725     -883.6152     -883.6152  1.7105 -5.8098
timer: Routine,Calls,Time,% = IterSCF        1      30.250  97.80
elaps: Routine,Calls,Wall,% = IterSCF        1      30.384  97.80
siesta:    2     -860.6361     -860.4277     -860.4277  0.1628 -5.4929
siesta:    3     -860.5872     -861.9990     -862.0004  0.0954 -5.5428
siesta:    4     -860.5815     -860.6097     -860.6109  0.0064 -5.5604
siesta:    5     -860.5812     -860.5887     -860.5897  0.0037 -5.5613
siesta:    6     -860.5812     -860.5987     -860.5997  0.0027 -5.5620
siesta:    7     -860.5812     -860.5984     -860.5994  0.0019 -5.5621
siesta:    8     -860.5812     -860.5919     -860.5928  0.0009 -5.5618

siesta: E_KS(eV) =             -860.5862

siesta: E_KS - E_eggbox =      -860.5862

siesta: Atomic forces (eV/Ang):
----------------------------------------
   Tot   -0.008556   -0.008558   -0.008558
----------------------------------------
   Max    1.850765
   Res    1.263478    sqrt( Sum f_i^2 / 3N )
----------------------------------------
   Max    1.850765    constrained

Stress-tensor-Voigt (kbar):     -136.05     -136.05     -136.05       35.11       35.11       35.11
(Free)E + p*V (eV/cell)     -848.2998
Target enthalpy (eV/cell)     -860.5872

siesta: Stress tensor (static) (eV/Ang**3):
        -0.084914    0.021911    0.021911
         0.021911   -0.084914    0.021911
         0.021911    0.021911   -0.084915

siesta: Pressure (static):        136.04939186  kBar

siesta: Stress tensor (total) (eV/Ang**3):
        -0.084914    0.021911    0.021911
         0.021911   -0.084914    0.021911
         0.021911    0.021911   -0.084915

siesta: Pressure (total):        136.04939186  kBar

mulliken: Mulliken Atomic and Orbital Populations:

Species: Si                  
Atom  Qatom  Qorb
               3s      3s      3py     3pz     3px     3py     3pz     3px     
               3Pdxy   3Pdyz   3Pdz2   3Pdxz   3Pdx2-y2
   1  4.077   0.437   0.682   0.105   0.105   0.105   0.653   0.653   0.653
              0.157   0.157   0.108   0.157   0.108
   2  3.957   0.653   0.568   0.159   0.159   0.159   0.571   0.571   0.571
              0.129   0.129   0.078   0.129   0.078
   3  3.975   0.583   0.601   0.113   0.180   0.113   0.614   0.572   0.614
              0.143   0.135   0.081   0.135   0.093
   4  4.014   0.511   0.639   0.142   0.064   0.142   0.612   0.660   0.612
              0.143   0.148   0.104   0.148   0.089
   5  3.975   0.583   0.601   0.180   0.113   0.113   0.572   0.614   0.614
              0.135   0.135   0.090   0.143   0.084
   6  4.014   0.511   0.639   0.064   0.142   0.142   0.660   0.612   0.612
              0.148   0.148   0.093   0.143   0.101
   7  3.975   0.583   0.601   0.113   0.113   0.180   0.614   0.614   0.572
              0.135   0.143   0.090   0.135   0.084
   8  4.014   0.511   0.639   0.142   0.142   0.064   0.612   0.612   0.660
              0.148   0.143   0.093   0.148   0.101

mulliken: Qtot =       32.000

cgvc: No target stress found, assuming hydrostatic MD.TargetPressure.

cgvc: Target stress (kBar)
cgvc:        -0.000       0.000       0.000
cgvc:         0.000      -0.000       0.000
cgvc:         0.000       0.000      -0.000

* Maximum dynamic memory allocated =    80 MB

siesta:                 ==============================
                            Begin CG move =      1
                        ==============================

outcoor: Atomic coordinates (Ang):                          
    0.02368110    0.02368106    0.02368107   1       1  Si
    1.36752886    1.36752889    1.36752870   1       2  Si
    2.73062378    2.73062378    0.01240633   1       3  Si
    4.07238882    4.07238885    1.36435116   1       4  Si
    2.73062393    0.01240622    2.73062384   1       5  Si
    4.07238873    1.36435111    4.07238897   1       6  Si
    0.01240628    2.73062385    2.73062383   1       7  Si
    1.36435110    4.07238876    4.07238894   1       8  Si
 Kpoints in:          196 . Kpoints trimmed:          172

siesta: k-grid: Number of k-points =   172
siesta: k-grid: Cutoff (effective) =    18.501 Ang
siesta: k-grid: Supercell and displacements
siesta: k-grid:    7   0   0      0.000
siesta: k-grid:    0   7   0      0.000
siesta: k-grid:    0   0   7      0.000
Naive supercell factors:     5    5    5

superc: Internal auxiliary supercell:     5 x     5 x     5  =     125
superc: Number of atoms, orbitals, and projectors:   1000  13000  16000

outcell: Unit cell vectors (Ang):
        5.285972   -0.009282   -0.009282
       -0.009282    5.285972   -0.009282
       -0.009282   -0.009282    5.285972

outcell: Cell vector modules (Ang)   :    5.285988    5.285988    5.285988
outcell: Cell angles (23,13,12) (deg):     90.2010     90.2010     90.2010
outcell: Cell volume (Ang**3)        :    147.6966
New_DM. Step:     2
Re-using DM from previous geometry...
Re-using DM without extrapolation (not allowed)
Density Matrix sparsity pattern changed.

InitMesh: MESH =    32 x    32 x    32 =       32768
InitMesh: Mesh cutoff (required, used) =   100.000   101.288 Ry

siesta: iscf   Eharris(eV)      E_KS(eV)   FreeEng(eV)   dDmax  Ef(eV)
siesta:    1     -861.2761     -860.3469     -860.3479  0.0319 -5.5452
siesta:    2     -861.3293     -861.2229     -861.2230  0.0354 -5.4973
siesta:    3     -861.2586     -861.1065     -861.1067  0.0089 -5.5289
siesta:    4     -861.2582     -861.2445     -861.2446  0.0006 -5.5315

siesta: E_KS(eV) =             -861.2487

siesta: Atomic forces (eV/Ang):
----------------------------------------
   Tot    0.001734    0.001736    0.001725
----------------------------------------
   Max    1.076581
   Res    0.781705    sqrt( Sum f_i^2 / 3N )
----------------------------------------
   Max    1.076581    constrained

Stress-tensor-Voigt (kbar):     -101.69     -101.69     -101.69       14.45       14.45       14.45
(Free)E + p*V (eV/cell)     -851.8742
Target enthalpy (eV/cell)     -861.2488

siesta: Stress tensor (static) (eV/Ang**3):
        -0.063472    0.009020    0.009020
         0.009020   -0.063472    0.009020
         0.009020    0.009020   -0.063472

siesta: Pressure (static):        101.69412937  kBar

siesta: Stress tensor (total) (eV/Ang**3):
        -0.063472    0.009020    0.009020
         0.009020   -0.063472    0.009020
         0.009020    0.009020   -0.063472

siesta: Pressure (total):        101.69412937  kBar

mulliken: Mulliken Atomic and Orbital Populations:

Species: Si                  
Atom  Qatom  Qorb
               3s      3s      3py     3pz     3px     3py     3pz     3px     
               3Pdxy   3Pdyz   3Pdz2   3Pdxz   3Pdx2-y2
   1  4.040   0.498   0.645   0.125   0.125   0.125   0.628   0.628   0.628
              0.148   0.148   0.097   0.148   0.097
   2  3.972   0.647   0.568   0.170   0.170   0.170   0.568   0.568   0.568
              0.129   0.129   0.078   0.129   0.078
   3  3.986   0.591   0.596   0.135   0.184   0.135   0.600   0.570   0.600
              0.139   0.134   0.081   0.134   0.089
   4  4.010   0.541   0.622   0.155   0.100   0.155   0.598   0.632   0.598
              0.139   0.143   0.096   0.143   0.086
   5  3.986   0.591   0.596   0.184   0.135   0.135   0.570   0.600   0.600
              0.134   0.134   0.087   0.139   0.083
   6  4.010   0.541   0.622   0.100   0.155   0.155   0.632   0.598   0.598
              0.143   0.143   0.089   0.139   0.094
   7  3.986   0.591   0.596   0.135   0.135   0.184   0.600   0.600   0.570
              0.134   0.139   0.087   0.134   0.083
   8  4.010   0.541   0.622   0.155   0.155   0.100   0.598   0.598   0.632
              0.143   0.139   0.089   0.143   0.094

mulliken: Qtot =       32.000

* Maximum dynamic memory allocated =    81 MB

siesta:                 ==============================
                            Begin CG move =      2
                        ==============================

outcoor: Atomic coordinates (Ang):                          
    0.06189641    0.06189631    0.06189636   1       1  Si
    1.37961655    1.37961663    1.37961612   1       2  Si
    2.74739443    2.74739443    0.03292596   1       3  Si
    4.05959685    4.05959693    1.37195774   1       4  Si
    2.74739480    0.03292568    2.74739458   1       5  Si
    4.05959663    1.37195762    4.05959726   1       6  Si
    0.03292583    2.74739462    2.74739456   1       7  Si
    1.37195759    4.05959669    4.05959717   1       8  Si
 Kpoints in:          108 . Kpoints trimmed:          108

siesta: k-grid: Number of k-points =   108
siesta: k-grid: Cutoff (effective) =    16.031 Ang
siesta: k-grid: Supercell and displacements
siesta: k-grid:    6   0   0      0.500
siesta: k-grid:    0   6   0      0.500
siesta: k-grid:    0   0   6      0.500
Naive supercell factors:     5    5    5

superc: Internal auxiliary supercell:     5 x     5 x     5  =     125
superc: Number of atoms, orbitals, and projectors:   1000  13000  16000

outcell: Unit cell vectors (Ang):
        5.343526   -0.024133   -0.024133
       -0.024133    5.343526   -0.024133
       -0.024133   -0.024133    5.343526

outcell: Cell vector modules (Ang)   :    5.343635    5.343635    5.343635
outcell: Cell angles (23,13,12) (deg):     90.5164     90.5164     90.5164
outcell: Cell volume (Ang**3)        :    152.5658
New_DM. Step:     3
Re-using DM from previous geometry...
Re-using DM without extrapolation (not allowed)
Density Matrix sparsity pattern changed.

InitMesh: MESH =    36 x    36 x    36 =       46656
InitMesh: Mesh cutoff (required, used) =   100.000   125.460 Ry

siesta: iscf   Eharris(eV)      E_KS(eV)   FreeEng(eV)   dDmax  Ef(eV)
siesta:    1     -861.8366     -860.5246     -860.5247  0.0408 -5.4943
siesta:    2     -862.0247     -861.6462     -861.6462  0.0583 -5.4780
siesta:    3     -861.7733     -861.4510     -861.4510  0.0163 -5.4849
siesta:    4     -861.7726     -861.7336     -861.7336  0.0015 -5.4868
siesta:    5     -861.7726     -861.7454     -861.7454  0.0009 -5.4868

siesta: E_KS(eV) =             -861.7638

siesta: Atomic forces (eV/Ang):
----------------------------------------
   Tot   -0.000766   -0.000758   -0.000772
----------------------------------------
   Max    0.431705
   Res    0.281219    sqrt( Sum f_i^2 / 3N )
----------------------------------------
   Max    0.431705    constrained

Stress-tensor-Voigt (kbar):      -58.56      -58.56      -58.56      -12.99      -12.99      -12.99
(Free)E + p*V (eV/cell)     -856.1879
Target enthalpy (eV/cell)     -861.7638

siesta: Stress tensor (static) (eV/Ang**3):
        -0.036548   -0.008108   -0.008108
        -0.008108   -0.036548   -0.008108
        -0.008108   -0.008108   -0.036548

siesta: Pressure (static):         58.55630031  kBar

siesta: Stress tensor (total) (eV/Ang**3):
        -0.036548   -0.008108   -0.008108
        -0.008108   -0.036548   -0.008108
        -0.008108   -0.008108   -0.036548

siesta: Pressure (total):         58.55630031  kBar

mulliken: Mulliken Atomic and Orbital Populations:

Species: Si                  
Atom  Qatom  Qorb
               3s      3s      3py     3pz     3px     3py     3pz     3px     
               3Pdxy   3Pdyz   3Pdz2   3Pdxz   3Pdx2-y2
   1  4.003   0.582   0.599   0.167   0.167   0.167   0.582   0.582   0.582
              0.135   0.135   0.084   0.135   0.084
   2  3.994   0.625   0.578   0.187   0.187   0.187   0.561   0.561   0.561
              0.130   0.130   0.079   0.130   0.079
   3  3.999   0.599   0.591   0.172   0.182   0.172   0.575   0.569   0.575
              0.133   0.132   0.082   0.132   0.083
   4  4.002   0.585   0.598   0.175   0.155   0.175   0.576   0.589   0.576
              0.134   0.135   0.086   0.135   0.082
   5  3.999   0.599   0.591   0.182   0.172   0.172   0.569   0.575   0.575
              0.132   0.132   0.083   0.133   0.082
   6  4.002   0.585   0.598   0.155   0.175   0.175   0.589   0.576   0.576
              0.135   0.135   0.083   0.134   0.085
   7  3.999   0.599   0.591   0.172   0.172   0.182   0.575   0.575   0.569
              0.132   0.133   0.083   0.132   0.082
   8  4.002   0.585   0.598   0.175   0.175   0.155   0.576   0.576   0.589
              0.135   0.134   0.083   0.135   0.085

mulliken: Qtot =       32.000

* Maximum dynamic memory allocated =    91 MB

siesta:                 ==============================
                            Begin CG move =      3
                        ==============================

outcoor: Atomic coordinates (Ang):                          
    0.12387435    0.12387415    0.12387425   1       1  Si
    1.39906312    1.39906329    1.39906225   1       2  Si
    2.77364532    2.77364532    0.06747129   1       3  Si
    4.03755767    4.03755785    1.38577881   1       4  Si
    2.77364607    0.06747072    2.77364561   1       5  Si
    4.03755723    1.38577856    4.03755849   1       6  Si
    0.06747102    2.77364569    2.77364558   1       7  Si
    1.38577851    4.03755736    4.03755831   1       8  Si
 Kpoints in:          108 . Kpoints trimmed:          108

siesta: k-grid: Number of k-points =   108
siesta: k-grid: Cutoff (effective) =    16.308 Ang
siesta: k-grid: Supercell and displacements
siesta: k-grid:    6   0   0      0.500
siesta: k-grid:    0   6   0      0.500
siesta: k-grid:    0   0   6      0.500
Naive supercell factors:     5    5    5

superc: Internal auxiliary supercell:     5 x     5 x     5  =     125
superc: Number of atoms, orbitals, and projectors:   1000  13000  16000

outcell: Unit cell vectors (Ang):
        5.435613   -0.047896   -0.047895
       -0.047896    5.435613   -0.047895
       -0.047895   -0.047895    5.435613

outcell: Cell vector modules (Ang)   :    5.436035    5.436035    5.436035
outcell: Cell angles (23,13,12) (deg):     91.0052     91.0052     91.0052
outcell: Cell volume (Ang**3)        :    160.5624
New_DM. Step:     4
Re-using DM from previous geometry...
Re-using DM without extrapolation (not allowed)
Density Matrix sparsity pattern changed.

InitMesh: MESH =    36 x    36 x    36 =       46656
InitMesh: Mesh cutoff (required, used) =   100.000   121.287 Ry

siesta: iscf   Eharris(eV)      E_KS(eV)   FreeEng(eV)   dDmax  Ef(eV)
siesta:    1     -861.5560     -859.9598     -859.9598  0.0482 -5.2936
siesta:    2     -862.2655     -860.8486     -860.8486  0.1180 -5.3999
siesta:    3     -861.3191     -860.7367     -860.7383  0.0291 -5.3397
siesta:    4     -861.3185     -861.1861     -861.1861  0.0034 -5.3419
siesta:    5     -861.3183     -861.2362     -861.2362  0.0025 -5.3412
siesta:    6     -861.3183     -861.2901     -861.2901  0.0004 -5.3402

siesta: E_KS(eV) =             -861.2998

siesta: Atomic forces (eV/Ang):
----------------------------------------
   Tot   -0.000676   -0.000665   -0.000659
----------------------------------------
   Max    1.674694
   Res    1.230591    sqrt( Sum f_i^2 / 3N )
----------------------------------------
   Max    1.674694    constrained

Stress-tensor-Voigt (kbar):      -15.79      -15.79      -15.79      -48.40      -48.40      -48.40
(Free)E + p*V (eV/cell)     -859.7170
Target enthalpy (eV/cell)     -861.2998

siesta: Stress tensor (static) (eV/Ang**3):
        -0.009858   -0.030211   -0.030211
        -0.030211   -0.009858   -0.030211
        -0.030211   -0.030211   -0.009858

siesta: Pressure (static):         15.79453505  kBar

siesta: Stress tensor (total) (eV/Ang**3):
        -0.009858   -0.030211   -0.030211
        -0.030211   -0.009858   -0.030211
        -0.030211   -0.030211   -0.009858

siesta: Pressure (total):         15.79453505  kBar

mulliken: Mulliken Atomic and Orbital Populations:

Species: Si                  
Atom  Qatom  Qorb
               3s      3s      3py     3pz     3px     3py     3pz     3px     
               3Pdxy   3Pdyz   3Pdz2   3Pdxz   3Pdx2-y2
   1  4.008   0.701   0.541   0.261   0.261   0.261   0.499   0.499   0.499
              0.115   0.115   0.069   0.115   0.069
   2  4.005   0.582   0.601   0.189   0.189   0.189   0.565   0.565   0.565
              0.132   0.132   0.082   0.132   0.082
   3  3.998   0.598   0.592   0.218   0.164   0.218   0.542   0.576   0.542
              0.126   0.131   0.085   0.131   0.076
   4  3.997   0.639   0.572   0.212   0.237   0.212   0.540   0.524   0.540
              0.125   0.122   0.074   0.122   0.078
   5  3.998   0.598   0.592   0.164   0.218   0.218   0.576   0.542   0.542
              0.131   0.131   0.078   0.126   0.083
   6  3.997   0.639   0.572   0.237   0.212   0.212   0.524   0.540   0.540
              0.122   0.122   0.077   0.125   0.075
   7  3.998   0.598   0.592   0.218   0.218   0.164   0.542   0.542   0.576
              0.131   0.126   0.078   0.131   0.083
   8  3.997   0.639   0.572   0.212   0.212   0.237   0.540   0.540   0.524
              0.122   0.125   0.077   0.122   0.075

mulliken: Qtot =       32.000

* Maximum dynamic memory allocated =    95 MB

siesta:                 ==============================
                            Begin CG move =      4
                        ==============================

outcoor: Atomic coordinates (Ang):                          
    0.07592327    0.07592315    0.07592321   1       1  Si
    1.38403450    1.38403461    1.38403398   1       2  Si
    2.75343676    2.75343676    0.04060903   1       3  Si
    4.05474702    4.05474712    1.37492719   1       4  Si
    2.75343722    0.04060868    2.75343694   1       5  Si
    4.05474675    1.37492703    4.05474752   1       6  Si
    0.04060887    2.75343699    2.75343692   1       7  Si
    1.37492701    4.05474683    4.05474741   1       8  Si
 Kpoints in:          108 . Kpoints trimmed:          108

siesta: k-grid: Number of k-points =   108
siesta: k-grid: Cutoff (effective) =    16.094 Ang
siesta: k-grid: Supercell and displacements
siesta: k-grid:    6   0   0      0.500
siesta: k-grid:    0   6   0      0.500
siesta: k-grid:    0   0   6      0.500
Naive supercell factors:     5    5    5

superc: Internal auxiliary supercell:     5 x     5 x     5  =     125
superc: Number of atoms, orbitals, and projectors:   1000  13000  16000

outcell: Unit cell vectors (Ang):
        5.364501   -0.029546   -0.029546
       -0.029546    5.364501   -0.029546
       -0.029546   -0.029546    5.364501

outcell: Cell vector modules (Ang)   :    5.364664    5.364664    5.364664
outcell: Cell angles (23,13,12) (deg):     90.6294     90.6294     90.6294
outcell: Cell volume (Ang**3)        :    154.3648
New_DM. Step:     5
Re-using DM from previous geometry...
Re-using DM without extrapolation (not allowed)
Density Matrix sparsity pattern changed.

InitMesh: MESH =    36 x    36 x    36 =       46656
InitMesh: Mesh cutoff (required, used) =   100.000   124.488 Ry

siesta: iscf   Eharris(eV)      E_KS(eV)   FreeEng(eV)   dDmax  Ef(eV)
siesta:    1     -861.9211     -862.6461     -862.6461  0.0344 -5.4297
siesta:    2     -862.2686     -861.5643     -861.5643  0.0832 -5.4467
siesta:    3     -861.8002     -861.9492     -861.9492  0.0182 -5.4233
siesta:    4     -861.7995     -861.7365     -861.7365  0.0030 -5.4213
siesta:    5     -861.7995     -861.7519     -861.7519  0.0022 -5.4208
siesta:    6     -861.7994     -861.7886     -861.7886  0.0003 -5.4203

siesta: E_KS(eV) =             -861.7932

siesta: Atomic forces (eV/Ang):
----------------------------------------
   Tot    0.000294    0.000300    0.000306
----------------------------------------
   Max    0.501940
   Res    0.415825    sqrt( Sum f_i^2 / 3N )
----------------------------------------
   Max    0.501940    constrained

Stress-tensor-Voigt (kbar):      -45.94      -45.94      -45.94      -21.82      -21.82      -21.82
(Free)E + p*V (eV/cell)     -857.3667
Target enthalpy (eV/cell)     -861.7932

siesta: Stress tensor (static) (eV/Ang**3):
        -0.028675   -0.013622   -0.013622
        -0.013622   -0.028675   -0.013622
        -0.013622   -0.013622   -0.028675

siesta: Pressure (static):         45.94357147  kBar

siesta: Stress tensor (total) (eV/Ang**3):
        -0.028675   -0.013622   -0.013622
        -0.013622   -0.028675   -0.013622
        -0.013622   -0.013622   -0.028675

siesta: Pressure (total):         45.94357147  kBar

mulliken: Mulliken Atomic and Orbital Populations:

Species: Si                  
Atom  Qatom  Qorb
               3s      3s      3py     3pz     3px     3py     3pz     3px     
               3Pdxy   3Pdyz   3Pdz2   3Pdxz   3Pdx2-y2
   1  3.999   0.611   0.585   0.185   0.185   0.185   0.565   0.565   0.565
              0.131   0.131   0.080   0.131   0.080
   2  3.998   0.617   0.582   0.188   0.188   0.188   0.562   0.562   0.562
              0.130   0.130   0.080   0.130   0.080
   3  4.000   0.600   0.590   0.183   0.178   0.183   0.568   0.571   0.568
              0.132   0.132   0.082   0.132   0.081
   4  4.001   0.598   0.591   0.183   0.174   0.183   0.569   0.574   0.569
              0.132   0.132   0.083   0.132   0.081
   5  4.000   0.600   0.590   0.178   0.183   0.183   0.571   0.568   0.568
              0.132   0.132   0.081   0.132   0.082
   6  4.001   0.598   0.591   0.174   0.183   0.183   0.574   0.569   0.569
              0.132   0.132   0.081   0.132   0.082
   7  4.000   0.600   0.590   0.183   0.183   0.178   0.568   0.568   0.571
              0.132   0.132   0.081   0.132   0.082
   8  4.001   0.598   0.591   0.183   0.183   0.174   0.569   0.569   0.574
              0.132   0.132   0.081   0.132   0.082

mulliken: Qtot =       32.000

cgvc: Finished line minimization    1.  Mean atomic displacement =    0.1638

* Maximum dynamic memory allocated =    95 MB

siesta:                 ==============================
                            Begin CG move =      5
                        ==============================

outcoor: Atomic coordinates (Ang):                          
    0.06000308    0.06000305    0.06000237   1       1  Si
    1.47717612    1.47717588    1.47717627   1       2  Si
    2.77805140    2.77805162    0.08161896   1       3  Si
    4.18863030    4.18863017    1.47378931   1       4  Si
    2.77805087    0.08161838    2.77805161   1       5  Si
    4.18862981    1.47378866    4.18863026   1       6  Si
    0.08161827    2.77805121    2.77805165   1       7  Si
    1.47378844    4.18862990    4.18863013   1       8  Si
 Kpoints in:          108 . Kpoints trimmed:          108

siesta: k-grid: Number of k-points =   108
siesta: k-grid: Cutoff (effective) =    16.427 Ang
siesta: k-grid: Supercell and displacements
siesta: k-grid:    6   0   0      0.500
siesta: k-grid:    0   6   0      0.500
siesta: k-grid:    0   0   6      0.500
Naive supercell factors:     5    5    5

superc: Internal auxiliary supercell:     5 x     5 x     5  =     125
superc: Number of atoms, orbitals, and projectors:   1000  13000  16000

outcell: Unit cell vectors (Ang):
        5.475628    0.000811    0.000811
        0.000811    5.475628    0.000811
        0.000811    0.000811    5.475629

outcell: Cell vector modules (Ang)   :    5.475628    5.475628    5.475629
outcell: Cell angles (23,13,12) (deg):     89.9830     89.9830     89.9830
outcell: Cell volume (Ang**3)        :    164.1730
New_DM. Step:     6
Re-using DM from previous geometry...
Re-using DM without extrapolation (not allowed)
Density Matrix sparsity pattern changed.

InitMesh: MESH =    36 x    36 x    36 =       46656
InitMesh: Mesh cutoff (required, used) =   100.000   119.464 Ry

siesta: iscf   Eharris(eV)      E_KS(eV)   FreeEng(eV)   dDmax  Ef(eV)
siesta:    1     -861.8456     -860.0207     -860.0207  0.0590 -5.1876
siesta:    2     -861.9585     -861.7199     -861.7199  0.0689 -5.2261
siesta:    3     -861.7999     -861.5849     -861.5849  0.0091 -5.2040
siesta:    4     -861.7994     -861.7663     -861.7663  0.0029 -5.2045
siesta:    5     -861.7993     -861.7858     -861.7858  0.0019 -5.2047
siesta:    6     -861.7992     -861.7920     -861.7920  0.0003 -5.2047

siesta: E_KS(eV) =             -861.7939

siesta: Atomic forces (eV/Ang):
----------------------------------------
   Tot   -0.001378   -0.001365   -0.001290
----------------------------------------
   Max    0.786151
   Res    0.537477    sqrt( Sum f_i^2 / 3N )
----------------------------------------
   Max    0.786151    constrained

Stress-tensor-Voigt (kbar):       14.08       14.08       14.08       13.55       13.55       13.55
(Free)E + p*V (eV/cell)     -863.2369
Target enthalpy (eV/cell)     -861.7939

siesta: Stress tensor (static) (eV/Ang**3):
         0.008790    0.008458    0.008457
         0.008458    0.008790    0.008457
         0.008457    0.008457    0.008788

siesta: Pressure (static):        -14.08240183  kBar

siesta: Stress tensor (total) (eV/Ang**3):
         0.008790    0.008458    0.008457
         0.008458    0.008790    0.008457
         0.008457    0.008457    0.008788

siesta: Pressure (total):        -14.08240183  kBar

mulliken: Mulliken Atomic and Orbital Populations:

Species: Si                  
Atom  Qatom  Qorb
               3s      3s      3py     3pz     3px     3py     3pz     3px     
               3Pdxy   3Pdyz   3Pdz2   3Pdxz   3Pdx2-y2
   1  3.997   0.677   0.552   0.248   0.248   0.248   0.510   0.510   0.510
              0.119   0.119   0.071   0.119   0.071
   2  4.009   0.611   0.584   0.223   0.223   0.223   0.536   0.536   0.536
              0.126   0.126   0.078   0.126   0.078
   3  4.001   0.639   0.570   0.237   0.220   0.237   0.523   0.533   0.523
              0.122   0.124   0.076   0.124   0.073
   4  3.997   0.660   0.559   0.234   0.253   0.234   0.521   0.508   0.521
              0.122   0.120   0.071   0.120   0.074
   5  4.001   0.639   0.570   0.220   0.237   0.237   0.533   0.523   0.523
              0.124   0.124   0.074   0.122   0.076
   6  3.997   0.660   0.559   0.253   0.234   0.234   0.508   0.521   0.521
              0.120   0.120   0.073   0.122   0.072
   7  4.001   0.639   0.570   0.237   0.237   0.220   0.523   0.523   0.533
              0.124   0.122   0.074   0.124   0.076
   8  3.997   0.660   0.559   0.234   0.234   0.253   0.521   0.521   0.508
              0.120   0.122   0.073   0.120   0.072

mulliken: Qtot =       32.000

* Maximum dynamic memory allocated =    95 MB

siesta:                 ==============================
                            Begin CG move =      6
                        ==============================

outcoor: Atomic coordinates (Ang):                          
    0.06759511    0.06759504    0.06759470   1       1  Si
    1.43322123    1.43322116    1.43322106   1       2  Si
    2.76683780    2.76683792    0.06252519   1       3  Si
    4.12584278    4.12584276    1.42736814   1       4  Si
    2.76683774    0.06252472    2.76683800   1       5  Si
    4.12584239    1.42736773    4.12584300   1       6  Si
    0.06252475    2.76683782    2.76683802   1       7  Si
    1.42736759    4.12584248    4.12584288   1       8  Si
 Kpoints in:          108 . Kpoints trimmed:          108

siesta: k-grid: Number of k-points =   108
siesta: k-grid: Cutoff (effective) =    16.271 Ang
siesta: k-grid: Supercell and displacements
siesta: k-grid:    6   0   0      0.500
siesta: k-grid:    0   6   0      0.500
siesta: k-grid:    0   0   6      0.500
Naive supercell factors:     5    5    5

superc: Internal auxiliary supercell:     5 x     5 x     5  =     125
superc: Number of atoms, orbitals, and projectors:   1000  13000  16000

outcell: Unit cell vectors (Ang):
        5.423636   -0.013392   -0.013392
       -0.013392    5.423636   -0.013392
       -0.013392   -0.013392    5.423636

outcell: Cell vector modules (Ang)   :    5.423669    5.423669    5.423669
outcell: Cell angles (23,13,12) (deg):     90.2826     90.2826     90.2826
outcell: Cell volume (Ang**3)        :    159.5378
New_DM. Step:     7
Re-using DM from previous geometry...
Re-using DM without extrapolation (not allowed)
Density Matrix sparsity pattern changed.

InitMesh: MESH =    36 x    36 x    36 =       46656
InitMesh: Mesh cutoff (required, used) =   100.000   121.770 Ry

siesta: iscf   Eharris(eV)      E_KS(eV)   FreeEng(eV)   dDmax  Ef(eV)
siesta:    1     -861.9574     -862.6637     -862.6637  0.0277 -5.3458
siesta:    2     -861.9794     -861.9316     -861.9316  0.0298 -5.3365
siesta:    3     -861.9480     -862.0010     -862.0010  0.0041 -5.3387
siesta:    4     -861.9478     -861.9425     -861.9425  0.0014 -5.3384
siesta:    5     -861.9478     -861.9410     -861.9410  0.0009 -5.3383

siesta: E_KS(eV) =             -861.9466

siesta: Atomic forces (eV/Ang):
----------------------------------------
   Tot    0.002343    0.002342    0.002328
----------------------------------------
   Max    0.276436
   Res    0.178267    sqrt( Sum f_i^2 / 3N )
----------------------------------------
   Max    0.276436    constrained

Stress-tensor-Voigt (kbar):       -9.22       -9.22       -9.22        0.14        0.14        0.14
(Free)E + p*V (eV/cell)     -861.0289
Target enthalpy (eV/cell)     -861.9466

siesta: Stress tensor (static) (eV/Ang**3):
        -0.005752    0.000087    0.000087
         0.000087   -0.005752    0.000087
         0.000087    0.000087   -0.005752

siesta: Pressure (static):          9.21631195  kBar

siesta: Stress tensor (total) (eV/Ang**3):
        -0.005752    0.000087    0.000087
         0.000087   -0.005752    0.000087
         0.000087    0.000087   -0.005752

siesta: Pressure (total):          9.21631195  kBar

mulliken: Mulliken Atomic and Orbital Populations:

Species: Si                  
Atom  Qatom  Qorb
               3s      3s      3py     3pz     3px     3py     3pz     3px     
               3Pdxy   3Pdyz   3Pdz2   3Pdxz   3Pdx2-y2
   1  3.998   0.649   0.565   0.218   0.218   0.218   0.536   0.536   0.536
              0.124   0.124   0.075   0.124   0.075
   2  4.003   0.617   0.581   0.205   0.205   0.205   0.550   0.550   0.550
              0.128   0.128   0.078   0.128   0.078
   3  4.001   0.623   0.578   0.211   0.199   0.211   0.545   0.553   0.545
              0.126   0.127   0.079   0.127   0.077
   4  3.999   0.634   0.572   0.209   0.215   0.209   0.545   0.540   0.545
              0.126   0.126   0.076   0.126   0.077
   5  4.001   0.623   0.578   0.199   0.211   0.211   0.553   0.545   0.545
              0.127   0.127   0.077   0.126   0.078
   6  3.999   0.634   0.572   0.215   0.209   0.209   0.540   0.545   0.545
              0.126   0.126   0.077   0.126   0.076
   7  4.001   0.623   0.578   0.211   0.211   0.199   0.545   0.545   0.553
              0.127   0.126   0.077   0.127   0.078
   8  3.999   0.634   0.572   0.209   0.209   0.215   0.545   0.545   0.540
              0.126   0.126   0.077   0.126   0.076

mulliken: Qtot =       32.000

cgvc: Finished line minimization    2.  Mean atomic displacement =    0.0872

* Maximum dynamic memory allocated =    95 MB

siesta:                 ==============================
                            Begin CG move =      7
                        ==============================

outcoor: Atomic coordinates (Ang):                          
    0.06950645    0.06950694    0.06950770   1       1  Si
    1.43594634    1.43594628    1.43594689   1       2  Si
    2.81911340    2.81911361    0.08051039   1       3  Si
    4.19525261    4.19525227    1.43090377   1       4  Si
    2.81911276    0.08051011    2.81911320   1       5  Si
    4.19525176    1.43090438    4.19525065   1       6  Si
    0.08050952    2.81911322    2.81911310   1       7  Si
    1.43090495    4.19525140    4.19525079   1       8  Si
 Kpoints in:          108 . Kpoints trimmed:          108

siesta: k-grid: Number of k-points =   108
siesta: k-grid: Cutoff (effective) =    16.467 Ang
siesta: k-grid: Supercell and displacements
siesta: k-grid:    0   6   0      0.500
siesta: k-grid:    6   0   0      0.500
siesta: k-grid:    0   0   6      0.500
Naive supercell factors:     5    5    5

superc: Internal auxiliary supercell:     5 x     5 x     5  =     125
superc: Number of atoms, orbitals, and projectors:   1000  13000  16000

outcell: Unit cell vectors (Ang):
        5.488936   -0.002736   -0.002736
       -0.002736    5.488936   -0.002736
       -0.002736   -0.002736    5.488936

outcell: Cell vector modules (Ang)   :    5.488937    5.488937    5.488937
outcell: Cell angles (23,13,12) (deg):     90.0571     90.0571     90.0571
outcell: Cell volume (Ang**3)        :    165.3728
New_DM. Step:     8
Re-using DM from previous geometry...
Re-using DM without extrapolation (not allowed)
Density Matrix sparsity pattern changed.

InitMesh: MESH =    36 x    36 x    36 =       46656
InitMesh: Mesh cutoff (required, used) =   100.000   118.886 Ry

siesta: iscf   Eharris(eV)      E_KS(eV)   FreeEng(eV)   dDmax  Ef(eV)
siesta:    1     -861.9531     -860.9243     -860.9243  0.0352 -5.2749
siesta:    2     -862.0224     -861.8859     -861.8859  0.0502 -5.2942
siesta:    3     -861.9306     -861.7347     -861.7347  0.0081 -5.2870
siesta:    4     -861.9304     -861.9096     -861.9096  0.0016 -5.2883
siesta:    5     -861.9303     -861.9186     -861.9186  0.0009 -5.2878

siesta: E_KS(eV) =             -861.9270

siesta: Atomic forces (eV/Ang):
----------------------------------------
   Tot   -0.001759   -0.001821   -0.001866
----------------------------------------
   Max    0.274910
   Res    0.129277    sqrt( Sum f_i^2 / 3N )
----------------------------------------
   Max    0.274910    constrained

Stress-tensor-Voigt (kbar):       21.84       21.84       21.84       -2.20       -2.20       -2.20
(Free)E + p*V (eV/cell)     -864.1814
Target enthalpy (eV/cell)     -861.9270

siesta: Stress tensor (static) (eV/Ang**3):
         0.013632   -0.001373   -0.001373
        -0.001373    0.013632   -0.001372
        -0.001373   -0.001372    0.013632

siesta: Pressure (static):        -21.84124232  kBar

siesta: Stress tensor (total) (eV/Ang**3):
         0.013632   -0.001373   -0.001373
        -0.001373    0.013632   -0.001372
        -0.001373   -0.001372    0.013632

siesta: Pressure (total):        -21.84124232  kBar

mulliken: Mulliken Atomic and Orbital Populations:

Species: Si                  
Atom  Qatom  Qorb
               3s      3s      3py     3pz     3px     3py     3pz     3px     
               3Pdxy   3Pdyz   3Pdz2   3Pdxz   3Pdx2-y2
   1  4.002   0.639   0.569   0.233   0.233   0.233   0.525   0.525   0.525
              0.123   0.123   0.075   0.123   0.075
   2  4.000   0.657   0.561   0.242   0.242   0.242   0.516   0.516   0.516
              0.121   0.121   0.072   0.121   0.072
   3  3.999   0.663   0.558   0.243   0.253   0.243   0.515   0.508   0.515
              0.121   0.120   0.071   0.120   0.073
   4  4.000   0.657   0.560   0.242   0.243   0.242   0.516   0.516   0.516
              0.121   0.121   0.072   0.121   0.072
   5  3.999   0.663   0.558   0.253   0.243   0.243   0.508   0.515   0.515
              0.120   0.120   0.072   0.121   0.071
   6  4.000   0.657   0.560   0.243   0.242   0.242   0.516   0.516   0.516
              0.121   0.121   0.072   0.121   0.072
   7  3.999   0.663   0.558   0.243   0.243   0.253   0.515   0.515   0.508
              0.120   0.121   0.072   0.120   0.071
   8  4.000   0.657   0.560   0.242   0.242   0.243   0.516   0.516   0.516
              0.121   0.121   0.072   0.121   0.072

mulliken: Qtot =       32.000

* Maximum dynamic memory allocated =    95 MB

siesta:                 ==============================
                            Begin CG move =      8
                        ==============================

outcoor: Atomic coordinates (Ang):                          
    0.06840672    0.06840689    0.06840702   1       1  Si
    1.43446127    1.43446121    1.43446141   1       2  Si
    2.78907504    2.78907520    0.07016170   1       3  Si
    4.15541755    4.15541740    1.42895497   1       4  Si
    2.78907473    0.07016131    2.78907507   1       5  Si
    4.15541697    1.42895499    4.15541684   1       6  Si
    0.07016108    2.78907497    2.78907504   1       7  Si
    1.42895516    4.15541686    4.15541684   1       8  Si
 Kpoints in:          108 . Kpoints trimmed:          108

siesta: k-grid: Number of k-points =   108
siesta: k-grid: Cutoff (effective) =    16.354 Ang
siesta: k-grid: Supercell and displacements
siesta: k-grid:    6   0   0      0.500
siesta: k-grid:    0   6   0      0.500
siesta: k-grid:    0   0   6      0.500
Naive supercell factors:     5    5    5

superc: Internal auxiliary supercell:     5 x     5 x     5  =     125
superc: Number of atoms, orbitals, and projectors:   1000  13000  16000

outcell: Unit cell vectors (Ang):
        5.451473   -0.008849   -0.008849
       -0.008849    5.451473   -0.008849
       -0.008849   -0.008849    5.451474

outcell: Cell vector modules (Ang)   :    5.451488    5.451488    5.451488
outcell: Cell angles (23,13,12) (deg):     90.1859     90.1859     90.1859
outcell: Cell volume (Ang**3)        :    162.0087
New_DM. Step:     9
Re-using DM from previous geometry...
Re-using DM without extrapolation (not allowed)
Density Matrix sparsity pattern changed.

InitMesh: MESH =    36 x    36 x    36 =       46656
InitMesh: Mesh cutoff (required, used) =   100.000   120.527 Ry

siesta: iscf   Eharris(eV)      E_KS(eV)   FreeEng(eV)   dDmax  Ef(eV)
siesta:    1     -861.9735     -862.5044     -862.5044  0.0194 -5.3275
siesta:    2     -861.9939     -861.9533     -861.9533  0.0265 -5.3209
siesta:    3     -861.9667     -862.0143     -862.0143  0.0030 -5.3195
siesta:    4     -861.9666     -861.9629     -861.9629  0.0009 -5.3191

siesta: E_KS(eV) =             -861.9630

siesta: Atomic forces (eV/Ang):
----------------------------------------
   Tot    0.000153    0.000145    0.000143
----------------------------------------
   Max    0.096839
   Res    0.066174    sqrt( Sum f_i^2 / 3N )
----------------------------------------
   Max    0.096839    constrained

Stress-tensor-Voigt (kbar):        5.59        5.59        5.59       -0.74       -0.74       -0.74
(Free)E + p*V (eV/cell)     -862.5285
Target enthalpy (eV/cell)     -861.9630

siesta: Stress tensor (static) (eV/Ang**3):
         0.003490   -0.000465   -0.000465
        -0.000465    0.003490   -0.000465
        -0.000465   -0.000465    0.003491

siesta: Pressure (static):         -5.59243354  kBar

siesta: Stress tensor (total) (eV/Ang**3):
         0.003490   -0.000465   -0.000465
        -0.000465    0.003490   -0.000465
        -0.000465   -0.000465    0.003491

siesta: Pressure (total):         -5.59243354  kBar

mulliken: Mulliken Atomic and Orbital Populations:

Species: Si                  
Atom  Qatom  Qorb
               3s      3s      3py     3pz     3px     3py     3pz     3px     
               3Pdxy   3Pdyz   3Pdz2   3Pdxz   3Pdx2-y2
   1  4.000   0.644   0.567   0.226   0.226   0.226   0.531   0.531   0.531
              0.124   0.124   0.075   0.124   0.075
   2  4.001   0.634   0.572   0.222   0.222   0.222   0.534   0.534   0.534
              0.125   0.125   0.076   0.125   0.076
   3  4.000   0.640   0.569   0.225   0.223   0.225   0.532   0.533   0.532
              0.124   0.124   0.075   0.124   0.075
   4  4.000   0.644   0.567   0.225   0.229   0.225   0.531   0.529   0.531
              0.124   0.123   0.074   0.123   0.075
   5  4.000   0.640   0.569   0.223   0.225   0.225   0.533   0.532   0.532
              0.124   0.124   0.075   0.124   0.075
   6  4.000   0.644   0.567   0.229   0.225   0.225   0.529   0.531   0.531
              0.123   0.123   0.075   0.124   0.075
   7  4.000   0.640   0.569   0.225   0.225   0.223   0.532   0.532   0.533
              0.124   0.124   0.075   0.124   0.075
   8  4.000   0.644   0.567   0.225   0.225   0.229   0.531   0.531   0.529
              0.123   0.124   0.075   0.123   0.075

mulliken: Qtot =       32.000

cgvc: Finished line minimization    3.  Mean atomic displacement =    0.0372

* Maximum dynamic memory allocated =    95 MB

siesta:                 ==============================
                            Begin CG move =      9
                        ==============================

outcoor: Atomic coordinates (Ang):                          
    0.07443637    0.07443515    0.07443356   1       1  Si
    1.41668675    1.41668698    1.41668697   1       2  Si
    2.79417502    2.79417408    0.06353493   1       3  Si
    4.13781550    4.13781594    1.42356041   1       4  Si
    2.79417375    0.06353549    2.79417296   1       5  Si
    4.13781522    1.42356091    4.13781726   1       6  Si
    0.06353612    2.79417328    2.79417295   1       7  Si
    1.42356092    4.13781607    4.13781693   1       8  Si
 Kpoints in:          108 . Kpoints trimmed:          108

siesta: k-grid: Number of k-points =   108
siesta: k-grid: Cutoff (effective) =    16.297 Ang
siesta: k-grid: Supercell and displacements
siesta: k-grid:    6   0   0      0.500
siesta: k-grid:    0   0   6      0.500
siesta: k-grid:    0   6   0      0.500
Naive supercell factors:     5    5    5

superc: Internal auxiliary supercell:     5 x     5 x     5  =     125
superc: Number of atoms, orbitals, and projectors:   1000  13000  16000

outcell: Unit cell vectors (Ang):
        5.432208   -0.007062   -0.007063
       -0.007062    5.432208   -0.007063
       -0.007063   -0.007063    5.432208

outcell: Cell vector modules (Ang)   :    5.432217    5.432217    5.432217
outcell: Cell angles (23,13,12) (deg):     90.1489     90.1489     90.1489
outcell: Cell volume (Ang**3)        :    160.2975
New_DM. Step:    10
Re-using DM from previous geometry...
Re-using DM without extrapolation (not allowed)
Density Matrix sparsity pattern changed.

InitMesh: MESH =    36 x    36 x    36 =       46656
InitMesh: Mesh cutoff (required, used) =   100.000   121.383 Ry

siesta: iscf   Eharris(eV)      E_KS(eV)   FreeEng(eV)   dDmax  Ef(eV)
siesta:    1     -861.9626     -862.2502     -862.2502  0.0121 -5.3454
siesta:    2     -861.9748     -861.9497     -861.9497  0.0199 -5.3441
siesta:    3     -861.9581     -862.0097     -862.0097  0.0035 -5.3420
siesta:    4     -861.9581     -861.9541     -861.9541  0.0004 -5.3409

siesta: E_KS(eV) =             -861.9549

siesta: Atomic forces (eV/Ang):
----------------------------------------
   Tot    0.003364    0.003371    0.003369
----------------------------------------
   Max    0.251503
   Res    0.156373    sqrt( Sum f_i^2 / 3N )
----------------------------------------
   Max    0.251503    constrained

Stress-tensor-Voigt (kbar):       -4.70       -4.70       -4.70       -6.06       -6.06       -6.06
(Free)E + p*V (eV/cell)     -861.4846
Target enthalpy (eV/cell)     -861.9549

siesta: Stress tensor (static) (eV/Ang**3):
        -0.002934   -0.003781   -0.003781
        -0.003781   -0.002934   -0.003782
        -0.003781   -0.003782   -0.002934

siesta: Pressure (static):          4.70044893  kBar

siesta: Stress tensor (total) (eV/Ang**3):
        -0.002934   -0.003781   -0.003781
        -0.003781   -0.002934   -0.003782
        -0.003781   -0.003782   -0.002934

siesta: Pressure (total):          4.70044893  kBar

mulliken: Mulliken Atomic and Orbital Populations:

Species: Si                  
Atom  Qatom  Qorb
               3s      3s      3py     3pz     3px     3py     3pz     3px     
               3Pdxy   3Pdyz   3Pdz2   3Pdxz   3Pdx2-y2
   1  4.001   0.631   0.574   0.213   0.213   0.213   0.542   0.542   0.542
              0.126   0.126   0.077   0.126   0.077
   2  3.999   0.644   0.567   0.219   0.219   0.219   0.536   0.536   0.536
              0.124   0.124   0.075   0.124   0.075
   3  4.000   0.634   0.572   0.214   0.215   0.214   0.541   0.540   0.541
              0.126   0.125   0.076   0.125   0.076
   4  4.000   0.629   0.575   0.215   0.208   0.215   0.541   0.546   0.541
              0.126   0.126   0.077   0.126   0.076
   5  4.000   0.634   0.572   0.215   0.214   0.214   0.540   0.541   0.541
              0.125   0.125   0.076   0.126   0.076
   6  4.000   0.629   0.575   0.208   0.215   0.215   0.546   0.541   0.541
              0.126   0.126   0.076   0.126   0.077
   7  4.000   0.634   0.572   0.214   0.214   0.215   0.541   0.541   0.540
              0.125   0.126   0.076   0.125   0.076
   8  4.000   0.629   0.575   0.215   0.215   0.208   0.541   0.541   0.546
              0.126   0.126   0.076   0.126   0.077

mulliken: Qtot =       32.000

* Maximum dynamic memory allocated =    95 MB

siesta:                 ==============================
                            Begin CG move =     10
                        ==============================

outcoor: Atomic coordinates (Ang):                          
    0.07055041    0.07055008    0.07054960   1       1  Si
    1.42814513    1.42814517    1.42814530   1       2  Si
    2.79089567    2.79089544    0.06780154   1       3  Si
    4.14916839    4.14916845    1.42703901   1       4  Si
    2.79089502    0.06780148    2.79089496   1       5  Si
    4.14916792    1.42703920    4.14916856   1       6  Si
    0.06780156    2.79089501    2.79089493   1       7  Si
    1.42703931    4.14916815    4.14916844   1       8  Si
 Kpoints in:          108 . Kpoints trimmed:          108

siesta: k-grid: Number of k-points =   108
siesta: k-grid: Cutoff (effective) =    16.334 Ang
siesta: k-grid: Supercell and displacements
siesta: k-grid:    6   0   0      0.500
siesta: k-grid:    0   6   0      0.500
siesta: k-grid:    0   0   6      0.500
Naive supercell factors:     5    5    5

superc: Internal auxiliary supercell:     5 x     5 x     5  =     125
superc: Number of atoms, orbitals, and projectors:   1000  13000  16000

outcell: Unit cell vectors (Ang):
        5.444637   -0.008215   -0.008215
       -0.008215    5.444637   -0.008215
       -0.008215   -0.008215    5.444637

outcell: Cell vector modules (Ang)   :    5.444649    5.444649    5.444650
outcell: Cell angles (23,13,12) (deg):     90.1728     90.1728     90.1728
outcell: Cell volume (Ang**3)        :    161.4001
New_DM. Step:    11
Re-using DM from previous geometry...
Re-using DM without extrapolation (not allowed)
Density Matrix sparsity pattern changed.

InitMesh: MESH =    36 x    36 x    36 =       46656
InitMesh: Mesh cutoff (required, used) =   100.000   120.830 Ry

siesta: iscf   Eharris(eV)      E_KS(eV)   FreeEng(eV)   dDmax  Ef(eV)
siesta:    1     -861.9726     -861.7722     -861.7722  0.0085 -5.3338
siesta:    2     -861.9776     -861.9670     -861.9670  0.0133 -5.3368
siesta:    3     -861.9705     -861.9330     -861.9330  0.0022 -5.3351
siesta:    4     -861.9706     -861.9696     -861.9696  0.0003 -5.3354

siesta: E_KS(eV) =             -861.9704

siesta: Atomic forces (eV/Ang):
----------------------------------------
   Tot    0.001230    0.001233    0.001220
----------------------------------------
   Max    0.026203
   Res    0.018798    sqrt( Sum f_i^2 / 3N )
----------------------------------------
   Max    0.026203    constrained

Stress-tensor-Voigt (kbar):        1.91        1.91        1.91       -2.55       -2.55       -2.55
(Free)E + p*V (eV/cell)     -862.1623
Target enthalpy (eV/cell)     -861.9704

siesta: Stress tensor (static) (eV/Ang**3):
         0.001189   -0.001590   -0.001590
        -0.001590    0.001189   -0.001590
        -0.001590   -0.001590    0.001189

siesta: Pressure (static):         -1.90509316  kBar

siesta: Stress tensor (total) (eV/Ang**3):
         0.001189   -0.001590   -0.001590
        -0.001590    0.001189   -0.001590
        -0.001590   -0.001590    0.001189

siesta: Pressure (total):         -1.90509316  kBar

mulliken: Mulliken Atomic and Orbital Populations:

Species: Si                  
Atom  Qatom  Qorb
               3s      3s      3py     3pz     3px     3py     3pz     3px     
               3Pdxy   3Pdyz   3Pdz2   3Pdxz   3Pdx2-y2
   1  4.000   0.640   0.569   0.222   0.222   0.222   0.534   0.534   0.534
              0.124   0.124   0.075   0.124   0.075
   2  4.000   0.638   0.570   0.221   0.221   0.221   0.535   0.535   0.535
              0.125   0.125   0.075   0.125   0.075
   3  4.000   0.639   0.569   0.222   0.221   0.222   0.534   0.535   0.534
              0.124   0.124   0.075   0.124   0.075
   4  4.000   0.639   0.569   0.221   0.222   0.221   0.534   0.534   0.534
              0.124   0.124   0.075   0.124   0.075
   5  4.000   0.639   0.569   0.221   0.222   0.222   0.535   0.534   0.534
              0.124   0.124   0.075   0.124   0.075
   6  4.000   0.639   0.569   0.222   0.221   0.221   0.534   0.534   0.534
              0.124   0.124   0.075   0.124   0.075
   7  4.000   0.639   0.569   0.222   0.222   0.221   0.534   0.534   0.535
              0.124   0.124   0.075   0.124   0.075
   8  4.000   0.639   0.569   0.221   0.221   0.222   0.534   0.534   0.534
              0.124   0.124   0.075   0.124   0.075

mulliken: Qtot =       32.000

* Maximum dynamic memory allocated =    95 MB

outcoor: Relaxed atomic coordinates (Ang):                  
    0.07055041    0.07055008    0.07054960   1       1  Si
    1.42814513    1.42814517    1.42814530   1       2  Si
    2.79089567    2.79089544    0.06780154   1       3  Si
    4.14916839    4.14916845    1.42703901   1       4  Si
    2.79089502    0.06780148    2.79089496   1       5  Si
    4.14916792    1.42703920    4.14916856   1       6  Si
    0.06780156    2.79089501    2.79089493   1       7  Si
    1.42703931    4.14916815    4.14916844   1       8  Si

outcell: Unit cell vectors (Ang):
        5.444637   -0.008215   -0.008215
       -0.008215    5.444637   -0.008215
       -0.008215   -0.008215    5.444637

outcell: Cell vector modules (Ang)   :    5.444649    5.444649    5.444650
outcell: Cell angles (23,13,12) (deg):     90.1728     90.1728     90.1728
outcell: Cell volume (Ang**3)        :    161.4001

coxmol: Writing XMOL coordinates into file si.xyz                                                          
Writing WFSX for selected k-points in si.selected.WFSX

writewave: Wave Functions Coefficients

     Number of k-points =        1
        Number of Spins =        1
   Number of basis orbs =      104


                                                                  ******
            k-point =        1    0.000000  0.000000  0.000000
     Spin component =        1
 Num. wavefunctions =       50
Use readwfsx utility to print wavefunction coefficients from WFSX file
Computing bands...

siesta: Band k vectors (Bohr**-1):
  ik           k
   1    0.316659    0.316659    0.316659
   2    0.303992    0.303992    0.303992
   3    0.291326    0.291326    0.291326
   4    0.278660    0.278660    0.278660
   5    0.265993    0.265993    0.265993
   6    0.253327    0.253327    0.253327
   7    0.240661    0.240661    0.240661
   8    0.227994    0.227994    0.227994
   9    0.215328    0.215328    0.215328
  10    0.202662    0.202662    0.202662
  11    0.189995    0.189995    0.189995
  12    0.177329    0.177329    0.177329
  13    0.164663    0.164663    0.164663
  14    0.151996    0.151996    0.151996
  15    0.139330    0.139330    0.139330
  16    0.126664    0.126664    0.126664
  17    0.113997    0.113997    0.113997
  18    0.101331    0.101331    0.101331
  19    0.088664    0.088664    0.088664
  20    0.075998    0.075998    0.075998
  21    0.063332    0.063332    0.063332
  22    0.050665    0.050665    0.050665
  23    0.037999    0.037999    0.037999
  24    0.025333    0.025333    0.025333
  25    0.012666    0.012666    0.012666
  26    0.000000    0.000000    0.000000
  27    0.021111    0.000000    0.000000
  28    0.042221    0.000000    0.000000
  29    0.063332    0.000000    0.000000
  30    0.084442    0.000000    0.000000
  31    0.105553    0.000000    0.000000
  32    0.126664    0.000000    0.000000
  33    0.147774    0.000000    0.000000
  34    0.168885    0.000000    0.000000
  35    0.189995    0.000000    0.000000
  36    0.211106    0.000000    0.000000
  37    0.232216    0.000000    0.000000
  38    0.253327    0.000000    0.000000
  39    0.274438    0.000000    0.000000
  40    0.295548    0.000000    0.000000
  41    0.316659    0.000000    0.000000
  42    0.337769    0.000000    0.000000
  43    0.358880    0.000000    0.000000
  44    0.379991    0.000000    0.000000
  45    0.401101    0.000000    0.000000
  46    0.422212    0.000000    0.000000
  47    0.443322    0.000000    0.000000
  48    0.464433    0.000000    0.000000
  49    0.485543    0.000000    0.000000
  50    0.506654    0.000000    0.000000
  51    0.527765    0.000000    0.000000
  52    0.548875    0.000000    0.000000
  53    0.569986    0.000000    0.000000
  54    0.591096    0.000000    0.000000
  55    0.612207    0.000000    0.000000
  56    0.633318    0.000000    0.000000
  57    0.633318    0.015833    0.015833
  58    0.633318    0.031666    0.031666
  59    0.633318    0.047499    0.047499
  60    0.633318    0.063332    0.063332
  61    0.633318    0.079165    0.079165
  62    0.633318    0.094998    0.094998
  63    0.633318    0.110831    0.110831
  64    0.633318    0.126664    0.126664
  65    0.633318    0.142496    0.142496
  66    0.633318    0.158329    0.158329
  67    0.615223    0.153806    0.153806
  68    0.597128    0.149282    0.149282
  69    0.579033    0.144758    0.144758
  70    0.560938    0.140235    0.140235
  71    0.542844    0.135711    0.135711
  72    0.524749    0.131187    0.131187
  73    0.506654    0.126664    0.126664
  74    0.488559    0.122140    0.122140
  75    0.470464    0.117616    0.117616
  76    0.452370    0.113092    0.113092
  77    0.434275    0.108569    0.108569
  78    0.416180    0.104045    0.104045
  79    0.398085    0.099521    0.099521
  80    0.379991    0.094998    0.094998
  81    0.361896    0.090474    0.090474
  82    0.343801    0.085950    0.085950
  83    0.325706    0.081427    0.081427
  84    0.307611    0.076903    0.076903
  85    0.289517    0.072379    0.072379
  86    0.271422    0.067855    0.067855
  87    0.253327    0.063332    0.063332
  88    0.235232    0.058808    0.058808
  89    0.217137    0.054284    0.054284
  90    0.199043    0.049761    0.049761
  91    0.180948    0.045237    0.045237
  92    0.162853    0.040713    0.040713
  93    0.144758    0.036190    0.036190
  94    0.126664    0.031666    0.031666
  95    0.108569    0.027142    0.027142
  96    0.090474    0.022618    0.022618
  97    0.072379    0.018095    0.018095
  98    0.054284    0.013571    0.013571
  99    0.036190    0.009047    0.009047
 100    0.018095    0.004524    0.004524
 101    0.000000    0.000000    0.000000

siesta: Band energies (eV):
  ik is    eps
   1  1 -15.30 -15.30 -15.30 -15.28 -12.67 -12.66 -12.66 -12.64  -6.91  -6.91
         -6.91  -6.91  -6.91  -6.89  -6.89  -6.89  -4.26  -4.17  -4.17  -4.17
         -2.23  -2.23  -2.21  -2.21  -2.21  -2.20  -2.20  -2.19   3.12   3.18
          3.18   3.18   5.20   5.20   5.20   5.28   5.28   5.41   5.41   5.41
          5.69   5.77   5.77   5.77   5.94   5.94   5.94   6.21   6.21   6.27
          6.27   6.27   8.28   8.28   8.28   8.36  16.47  16.47  16.47  16.54
         17.49  17.49  17.50  17.51  17.51  17.57  17.57  17.57  19.42  19.42
         19.42  19.42  19.42  19.43  19.46  19.46  20.51  20.51  20.52  21.08
         29.45  29.45  29.45  29.54  29.54  29.72  29.72  29.72  69.20  69.22
         69.22  69.31  73.52  73.52  73.65  73.76  73.76  74.90  74.96  74.96
        112.89 114.17 114.17 114.17
   2  1 -15.30 -15.30 -15.30 -15.27 -12.67 -12.67 -12.67 -12.66  -6.91  -6.91
         -6.89  -6.88  -6.88  -6.88  -6.88  -6.88  -4.26  -4.20  -4.20  -4.20
         -2.23  -2.23  -2.22  -2.22  -2.22  -2.19  -2.19  -2.19   3.13   3.18
          3.18   3.18   5.42   5.42   5.42   5.46   5.46   5.46   5.46   5.46
          5.71   5.71   5.71   5.73   5.93   5.93   5.93   6.02   6.02   6.05
          6.05   6.05   8.27   8.27   8.27   8.33  16.48  16.48  16.48  16.57
         17.50  17.50  17.51  17.56  17.56  17.61  17.61  17.61  19.42  19.42
         19.43  19.43  19.43  19.44  19.44  19.44  20.72  20.72  20.72  21.03
         29.50  29.50  29.50  29.53  29.53  29.72  29.72  29.73  69.48  69.48
         69.48  69.90  73.60  73.60  74.62  74.72  74.72  76.52  76.59  76.59
        113.69 116.16 116.16 116.17
   3  1 -15.30 -15.30 -15.30 -15.30 -12.66 -12.66 -12.66 -12.62  -6.94  -6.94
         -6.94  -6.91  -6.91  -6.90  -6.90  -6.90  -4.26  -4.14  -4.14  -4.14
         -2.23  -2.23  -2.20  -2.20  -2.20  -2.19  -2.19  -2.19   3.12   3.17
          3.17   3.17   5.03   5.03   5.03   5.15   5.15   5.40   5.40   5.40
          5.65   5.79   5.79   5.79   5.96   5.96   5.96   6.35   6.35   6.45
          6.46   6.46   8.29   8.29   8.29   8.39  16.46  16.46  16.46  16.50
         17.45  17.45  17.48  17.48  17.48  17.53  17.53  17.53  19.40  19.40
         19.41  19.41  19.41  19.41  19.50  19.50  20.30  20.30  20.30  21.14
         29.40  29.40  29.40  29.56  29.56  29.72  29.72  29.72  68.59  68.70
         68.70  68.72  72.64  72.73  72.73  73.43  73.43  73.58  73.65  73.65
        111.96 111.98 111.98 112.06
   4  1 -15.38 -15.29 -15.29 -15.29 -12.64 -12.64 -12.64 -12.50  -7.08  -7.08
         -7.08  -6.94  -6.94  -6.94  -6.90  -6.90  -4.24  -4.00  -4.00  -4.00
         -2.24  -2.24  -2.23  -2.22  -2.22  -2.12  -2.12  -2.12   3.11   3.12
          3.12   3.13   4.57   4.57   4.57   4.74   4.74   5.36   5.36   5.36
          5.47   5.86   5.86   5.86   6.02   6.02   6.02   6.81   6.81   7.00
          7.00   7.00   8.36   8.36   8.36   8.53  16.37  16.40  16.40  16.40
         17.20  17.20  17.35  17.35  17.35  17.43  17.43  17.43  19.25  19.26
         19.26  19.32  19.32  19.32  19.60  19.60  19.62  19.67  19.67  21.41
         29.15  29.15  29.15  29.62  29.62  29.76  29.76  29.76  64.00  64.02
         64.02  65.58  68.69  68.77  68.77  71.88  71.88  71.89  73.13  73.13
        102.98 103.01 103.01 108.78
   5  1 -15.49 -15.28 -15.28 -15.28 -12.61 -12.61 -12.61 -12.34  -7.28  -7.27
         -7.27  -7.00  -7.00  -7.00  -6.88  -6.88  -4.23  -3.82  -3.82  -3.82
         -2.27  -2.27  -2.27  -2.20  -2.20  -2.01  -2.01  -2.00   2.99   2.99
          2.99   3.10   4.21   4.21   4.21   4.34   4.34   5.23   5.32   5.32
          5.32   5.96   5.96   5.96   6.11   6.11   6.11   7.29   7.29   7.53
          7.54   7.54   8.49   8.49   8.50   8.69  16.21  16.23  16.23  16.23
         16.86  16.86  17.07  17.07  17.08  17.38  17.38  17.38  18.58  18.59
         18.59  19.18  19.18  19.19  19.46  19.46  19.47  19.86  19.86  21.78
         28.76  28.76  28.76  29.71  29.71  29.89  29.89  29.89  57.31  57.32
         57.32  61.18  64.29  64.35  64.35  71.98  71.98  72.00  72.60  72.60
         93.40  93.43  93.43 105.10
   6  1 -15.62 -15.26 -15.26 -15.26 -12.56 -12.56 -12.56 -12.12  -7.51  -7.51
         -7.51  -7.08  -7.08  -7.08  -6.85  -6.85  -4.20  -3.65  -3.65  -3.65
         -2.27  -2.27  -2.27  -2.18  -2.18  -1.85  -1.85  -1.85   2.71   2.71
          2.71   3.07   3.95   3.95   4.02   4.02   4.02   4.98   5.27   5.27
          5.27   6.08   6.08   6.08   6.21   6.21   6.22   7.79   7.79   7.95
          7.96   7.96   8.79   8.79   8.79   8.82  15.90  15.90  15.90  16.09
         16.47  16.47  16.72  16.72  16.73  17.33  17.33  17.33  18.06  18.06
         18.06  19.00  19.00  19.00  19.45  19.45  19.46  20.06  20.06  22.21
         28.24  28.24  28.24  29.82  29.82  30.14  30.14  30.14  50.93  50.93
         50.93  56.14  60.49  60.54  60.54  71.90  71.90  72.15  72.15  72.16
         86.44  86.47  86.47 101.72
   7  1 -15.77 -15.24 -15.24 -15.24 -12.50 -12.50 -12.50 -11.87  -7.76  -7.75
         -7.75  -7.17  -7.17  -7.17  -6.82  -6.82  -4.16  -3.52  -3.52  -3.52
         -2.21  -2.21  -2.20  -2.16  -2.16  -1.66  -1.66  -1.66   2.30   2.30
          2.30   3.01   3.58   3.58   3.97   3.97   3.97   4.74   5.23   5.24
          5.24   6.22   6.22   6.22   6.33   6.33   6.33   8.20   8.21   8.21
          8.29   8.29   8.90   9.28   9.28   9.28  15.47  15.47  15.47  16.05
         16.05  16.05  16.33  16.33  16.33  17.22  17.22  17.22  17.85  17.85
         17.85  18.77  18.77  18.77  19.47  19.47  19.48  20.25  20.25  22.67
         27.62  27.62  27.63  29.95  29.95  30.48  30.48  30.48  45.40  45.40
         45.41  51.15  57.70  57.73  57.73  71.10  71.10  71.76  71.76  71.78
         82.68  82.70  82.70  98.75
   8  1 -15.93 -15.21 -15.21 -15.21 -12.44 -12.44 -12.44 -11.60  -8.01  -8.01
         -8.01  -7.27  -7.27  -7.27  -6.79  -6.79  -4.12  -3.49  -3.49  -3.49
         -2.13  -2.13  -2.03  -2.03  -2.03  -1.44  -1.44  -1.44   1.83   1.83
          1.83   2.90   3.23   3.23   4.00   4.00   4.01   4.56   5.20   5.20
          5.20   6.37   6.37   6.37   6.45   6.45   6.45   8.38   8.38   8.38
          8.78   8.78   8.90   9.87   9.87   9.87  15.04  15.04  15.04  15.62
         15.62  15.90  15.90  15.90  16.09  17.03  17.03  17.03  17.87  17.87
         17.87  18.49  18.49  18.50  19.54  19.54  19.55  20.41  20.41  23.15
         26.95  26.95  26.95  30.10  30.10  30.90  30.90  30.90  40.90  40.90
         40.91  46.71  55.91  55.93  55.93  70.28  70.28  70.74  70.74  70.76
         81.31  81.32  81.32  95.99
   9  1 -16.08 -15.18 -15.18 -15.18 -12.37 -12.37 -12.37 -11.30  -8.26  -8.26
         -8.26  -7.38  -7.37  -7.37  -6.75  -6.75  -4.08  -3.53  -3.53  -3.53
         -2.11  -2.11  -1.77  -1.77  -1.76  -1.19  -1.19  -1.19   1.34   1.34
          1.34   2.74   2.91   2.91   4.08   4.08   4.08   4.44   5.18   5.18
          5.18   6.52   6.52   6.52   6.57   6.57   6.57   8.53   8.53   8.53
          8.80   9.26   9.26  10.49  10.50  10.50  14.61  14.61  14.62  15.21
         15.21  15.46  15.46  15.46  16.21  16.85  16.85  16.85  17.98  17.98
         17.98  18.18  18.18  18.18  19.65  19.65  19.66  20.56  20.56  23.65
         26.24  26.24  26.24  30.26  30.26  31.36  31.36  31.36  37.35  37.35
         37.36  43.03  54.94  54.96  54.96  69.44  69.44  69.49  69.55  69.55
         81.07  81.07  81.07  93.21
  10  1 -16.24 -15.14 -15.14 -15.14 -12.29 -12.29 -12.29 -10.98  -8.51  -8.50
         -8.50  -7.49  -7.48  -7.48  -6.70  -6.70  -4.02  -3.63  -3.63  -3.63
         -2.09  -2.09  -1.44  -1.44  -1.44  -0.92  -0.92  -0.91   0.84   0.84
          0.84   2.53   2.62   2.62   4.17   4.17   4.18   4.39   5.16   5.16
          5.16   6.66   6.66   6.66   6.69   6.69   6.69   8.61   8.70   8.70
          8.70   9.69   9.69  11.12  11.12  11.12  14.21  14.21  14.21  14.85
         14.85  15.02  15.02  15.02  16.40  16.70  16.70  16.70  17.83  17.83
         17.83  18.11  18.11  18.12  19.82  19.82  19.82  20.68  20.68  24.17
         25.52  25.52  25.52  30.43  30.43  31.77  31.77  31.77  34.65  34.65
         34.66  40.15  54.61  54.63  54.63  68.14  68.14  68.15  68.95  68.95
         81.10  81.10  81.10  90.20
  11  1 -16.39 -15.09 -15.09 -15.09 -12.22 -12.22 -12.22 -10.65  -8.73  -8.73
         -8.73  -7.60  -7.59  -7.59  -6.64  -6.64  -3.96  -3.75  -3.75  -3.75
         -2.08  -2.08  -1.07  -1.07  -1.07  -0.62  -0.62  -0.62   0.34   0.34
          0.34   2.26   2.36   2.36   4.28   4.28   4.28   4.41   5.16   5.16
          5.16   6.78   6.78   6.79   6.80   6.81   6.81   8.34   8.89   8.89
          8.89  10.03  10.03  11.72  11.72  11.72  13.81  13.81  13.81  14.57
         14.57  14.59  14.59  14.59  16.59  16.60  16.60  16.61  17.45  17.45
         17.45  18.25  18.25  18.25  20.03  20.03  20.04  20.77  20.77  24.69
         24.80  24.80  24.81  30.62  30.62  31.49  31.49  31.49  33.22  33.22
         33.23  38.06  54.77  54.78  54.78  66.65  66.65  66.66  68.66  68.66
         81.01  81.01  81.02  86.87
  12  1 -16.53 -15.04 -15.04 -15.04 -12.15 -12.15 -12.15 -10.30  -8.94  -8.94
         -8.94  -7.71  -7.70  -7.70  -6.58  -6.58  -3.89  -3.88  -3.88  -3.88
         -2.08  -2.08  -0.69  -0.69  -0.69  -0.30  -0.30  -0.30  -0.14  -0.14
[...]
         73.32  86.69  89.16  91.06
  93  1 -16.56 -15.89 -14.72 -14.36 -12.50 -12.10 -10.67  -9.94  -9.66  -9.62
         -8.57  -8.32  -8.12  -7.87  -7.61  -6.67  -3.53  -3.53  -3.05  -2.42
         -2.20  -1.84  -1.83  -1.06  -1.04  -0.82  -0.65  -0.51   0.46   0.51
          1.08   1.89   1.93   1.98   2.49   3.45   3.86   3.97   4.56   5.56
          5.62   5.64   7.49   7.75   8.18   8.42   8.94   9.20   9.44  10.17
         10.40  11.00  11.04  11.30  11.48  11.72  11.98  12.48  13.05  13.36
         14.08  14.33  14.52  14.61  14.69  15.63  16.10  16.40  16.52  17.12
         17.69  17.81  18.66  18.82  19.41  20.76  21.82  22.27  23.20  23.42
         23.76  23.98  24.81  25.12  26.38  26.52  32.71  37.52  38.75  41.24
         43.80  54.26  54.76  57.10  58.40  63.93  65.68  67.43  67.81  69.27
         73.03  86.52  88.92  91.24
  94  1 -16.34 -15.72 -14.79 -14.79 -12.43 -12.43 -11.37 -10.55  -9.17  -9.17
         -8.13  -7.84  -7.84  -7.52  -7.02  -6.99  -3.64  -3.45  -3.28  -3.28
         -2.34  -1.67  -1.67  -1.52  -1.35  -0.68  -0.48   0.35   0.35   0.45
          0.75   0.75   2.68   2.68   3.22   3.23   4.74   4.89   5.02   5.27
          5.34   5.34   6.39   6.39   7.17   8.20   8.74   9.11   9.11   9.21
          9.31   9.31  11.15  11.51  11.51  11.77  13.12  13.27  13.53  13.53
         13.71  14.76  15.01  15.01  16.17  16.17  16.59  16.68  17.32  17.41
         17.41  17.85  17.86  19.18  19.22  19.23  20.82  22.18  22.32  24.08
         24.56  24.56  25.34  27.20  28.04  28.04  32.40  33.51  36.22  36.22
         41.44  49.38  56.07  56.07  56.92  61.96  64.99  68.48  68.48  69.73
         81.01  86.64  86.65  95.05
  95  1 -15.93 -15.40 -15.40 -15.03 -12.47 -12.06 -12.06 -11.41  -8.68  -8.27
         -8.27  -7.57  -7.29  -7.24  -7.24  -6.70  -3.57  -3.48  -3.09  -3.09
         -2.38  -2.38  -2.04  -2.01  -1.52  -1.18  -1.02  -1.02   1.28   1.28
          2.01   2.20   2.47   3.00   3.38   3.85   3.85   4.21   4.21   4.46
          5.12   6.89   6.89   7.07   7.07   7.64   8.03   8.56   8.76   8.77
          8.91   9.30   9.38  10.12  10.59  10.59  13.89  14.09  14.09  15.08
         15.08  15.12  15.63  15.87  15.89  15.95  16.49  16.49  17.70  18.40
         18.47  18.47  19.01  19.01  19.38  19.83  20.54  20.54  21.21  22.02
         26.90  27.18  27.18  28.86  29.07  32.45  32.45  34.51  39.84  41.52
         41.52  48.08  55.56  55.57  58.08  59.28  64.29  76.27  76.28  81.12
         81.74  81.75  90.52  92.02
  96  1 -15.95 -15.39 -15.37 -15.03 -12.47 -12.07 -12.06 -11.42  -8.69  -8.28
         -8.25  -7.54  -7.27  -7.26  -7.24  -6.67  -3.50  -3.46  -3.13  -3.08
         -2.41  -2.39  -2.01  -1.99  -1.54  -1.16  -1.07  -1.03   1.18   1.23
          2.03   2.23   2.36   3.06   3.45   3.87   3.89   4.24   4.26   4.48
          5.07   6.92   6.94   7.13   7.20   7.66   7.95   8.60   8.77   8.83
          8.92   9.22   9.26  10.08  10.46  10.55  13.84  14.08  14.13  15.07
         15.10  15.12  15.57  15.75  15.90  15.95  16.57  16.60  17.73  18.40
         18.41  18.44  19.05  19.14  19.40  19.89  20.55  20.57  21.27  21.86
         27.02  27.12  27.26  28.91  29.07  32.45  32.49  34.66  39.90  41.54
         41.59  48.25  55.29  55.42  58.51  59.47  65.14  76.73  76.81  80.79
         81.57  81.85  90.31  93.78
  97  1 -15.95 -15.40 -15.40 -15.00 -12.47 -12.07 -12.07 -11.43  -8.71  -8.26
         -8.26  -7.52  -7.30  -7.24  -7.23  -6.68  -3.52  -3.50  -3.06  -3.05
         -2.39  -2.38  -2.04  -1.97  -1.59  -1.20  -1.04  -1.04   1.19   1.19
          1.97   2.17   2.43   3.05   3.45   3.87   3.88   4.28   4.28   4.52
          5.19   6.95   6.95   7.07   7.07   7.63   8.02   8.63   8.82   8.82
          8.97   9.18   9.30  10.03  10.45  10.45  13.80  14.04  14.04  15.04
         15.04  15.19  15.56  15.87  15.91  16.03  16.61  16.61  17.78  18.39
         18.45  18.46  19.01  19.01  19.40  19.88  20.59  20.59  21.25  21.95
         26.88  27.23  27.23  28.97  29.04  32.65  32.66  34.58  39.83  41.65
         41.66  47.86  56.18  56.19  58.06  59.30  64.81  76.78  76.78  81.28
         81.88  81.90  90.25  92.90
  98  1 -16.12 -15.50 -15.50 -14.95 -12.01 -11.37 -11.37 -10.58  -9.73  -9.22
         -9.22  -8.58  -7.42  -7.33  -7.33  -6.61  -3.65  -2.91  -2.66  -2.66
         -1.99  -1.98  -1.63  -1.42  -0.34  -0.34  -0.31  -0.18   0.23   0.23
          0.48   0.95   1.56   1.93   2.36   2.63   2.63   4.04   4.04   5.21
          5.80   7.62   7.62   7.97   8.55   8.55   9.36   9.55   9.76   9.92
          9.92  10.60  11.13  11.60  11.61  12.03  12.72  12.84  12.86  12.86
         13.50  13.71  13.72  14.54  15.02  15.29  15.29  15.53  17.63  18.41
         18.41  19.20  20.00  20.01  20.48  20.49  21.76  21.76  21.90  22.46
         25.36  25.99  26.21  26.21  27.94  36.02  36.03  41.12  44.91  44.91
         50.84  51.72  54.54  54.55  59.70  61.42  62.99  70.18  70.20  81.43
         81.43  82.70  85.00  88.05
  99  1 -16.12 -15.51 -15.50 -14.96 -12.01 -11.37 -11.37 -10.56  -9.72  -9.22
         -9.22  -8.61  -7.42  -7.33  -7.33  -6.62  -3.64  -2.93  -2.66  -2.66
         -2.02  -2.02  -1.63  -1.45  -0.28  -0.27  -0.26  -0.12   0.25   0.25
          0.52   0.97   1.50   1.89   2.37   2.57   2.57   4.04   4.04   5.18
          5.77   7.62   7.62   7.97   8.54   8.54   9.40   9.56   9.82   9.83
          9.83  10.61  11.06  11.65  11.66  12.10  12.68  12.88  13.01  13.01
         13.58  13.72  13.72  14.53  14.97  15.17  15.17  15.48  17.63  18.41
         18.41  19.16  20.01  20.01  20.45  20.45  21.72  21.72  21.89  22.51
         25.38  26.00  26.19  26.19  27.91  35.97  35.97  41.10  44.54  44.55
         50.77  51.56  54.59  54.60  59.58  61.80  62.74  69.47  69.48  81.36
         81.36  82.62  85.13  88.08
 100  1 -15.93 -15.40 -15.40 -15.03 -12.47 -12.06 -12.06 -11.41  -8.68  -8.27
         -8.27  -7.57  -7.29  -7.24  -7.24  -6.70  -3.57  -3.48  -3.09  -3.09
         -2.38  -2.38  -2.04  -2.01  -1.52  -1.18  -1.02  -1.02   1.28   1.28
          2.01   2.20   2.47   3.00   3.38   3.85   3.85   4.21   4.21   4.46
          5.12   6.89   6.89   7.07   7.07   7.64   8.03   8.56   8.76   8.77
          8.91   9.30   9.38  10.12  10.59  10.59  13.89  14.09  14.09  15.08
         15.08  15.12  15.63  15.87  15.89  15.95  16.49  16.49  17.70  18.40
         18.47  18.47  19.01  19.01  19.38  19.83  20.54  20.54  21.21  22.02
         26.90  27.18  27.18  28.86  29.07  32.45  32.45  34.51  39.84  41.52
         41.52  48.08  55.56  55.57  58.08  59.28  64.29  76.27  76.28  81.12
         81.74  81.75  90.52  92.02
 101  1 -15.60 -15.27 -15.27 -15.27 -12.57 -12.57 -12.57 -12.16  -7.47  -7.47
         -7.47  -7.07  -7.06  -7.06  -6.86  -6.86  -4.20  -3.67  -3.67  -3.67
         -2.28  -2.28  -2.27  -2.18  -2.18  -1.88  -1.88  -1.88   2.76   2.76
          2.76   3.07   4.00   4.00   4.03   4.03   4.04   5.02   5.28   5.28
          5.28   6.06   6.06   6.06   6.20   6.20   6.20   7.71   7.71   7.90
          7.90   7.90   8.73   8.73   8.74   8.81  15.96  15.96  15.96  16.11
         16.53  16.53  16.78  16.78  16.78  17.34  17.34  17.34  18.12  18.12
         18.12  19.03  19.03  19.03  19.45  19.45  19.46  20.03  20.03  22.14
         28.32  28.32  28.32  29.80  29.80  30.09  30.09  30.09  51.84  51.84
         51.84  56.90  61.00  61.04  61.04  72.00  72.00  72.15  72.15  72.16
         87.27  87.30  87.30 102.20
 102  1 -15.63 -15.27 -15.27 -15.23 -12.57 -12.57 -12.57 -12.17  -7.50  -7.48
         -7.47  -7.09  -7.05  -7.05  -6.83  -6.82  -4.14  -3.72  -3.66  -3.66
         -2.32  -2.30  -2.30  -2.18  -2.14  -1.89  -1.86  -1.85   2.68   2.68
          2.70   3.12   3.96   4.02   4.04   4.04   4.04   5.01   5.34   5.34
          5.35   6.10   6.10   6.12   6.26   6.29   6.29   7.62   7.70   7.87
          7.87   7.90   8.64   8.64   8.72   8.73  15.95  15.95  16.01  16.04
         16.47  16.53  16.72  16.72  16.77  17.40  17.43  17.43  18.14  18.14
         18.30  19.00  19.02  19.02  19.45  19.45  19.46  20.06  20.08  21.89
         28.33  28.48  28.49  29.81  29.97  30.00  30.03  30.05  51.51  51.91
         51.91  56.85  60.54  61.65  61.67  71.69  71.71  72.04  72.95  74.24
         87.74  87.75  87.85 102.92
 103  1 -15.95 -15.39 -15.37 -15.03 -12.47 -12.07 -12.06 -11.42  -8.69  -8.28
         -8.25  -7.54  -7.27  -7.26  -7.24  -6.67  -3.50  -3.46  -3.13  -3.08
         -2.41  -2.39  -2.01  -1.99  -1.54  -1.16  -1.07  -1.03   1.18   1.23
          2.03   2.23   2.36   3.06   3.45   3.87   3.89   4.24   4.26   4.48
          5.07   6.92   6.94   7.13   7.20   7.66   7.95   8.60   8.77   8.83
          8.92   9.22   9.26  10.08  10.46  10.55  13.84  14.08  14.13  15.07
         15.10  15.12  15.57  15.75  15.90  15.95  16.57  16.60  17.73  18.40
         18.41  18.44  19.05  19.14  19.40  19.89  20.55  20.57  21.27  21.86
         27.02  27.12  27.26  28.91  29.07  32.45  32.49  34.66  39.90  41.54
         41.59  48.25  55.29  55.42  58.51  59.47  65.14  76.73  76.81  80.79
         81.57  81.85  90.31  93.78
 104  1 -16.13 -15.49 -15.49 -14.97 -12.00 -11.38 -11.37 -10.57  -9.72  -9.23
         -9.21  -8.61  -7.39  -7.35  -7.34  -6.60  -3.61  -2.89  -2.71  -2.69
         -2.04  -2.01  -1.60  -1.42  -0.35  -0.32  -0.28  -0.12   0.20   0.22
          0.54   1.00   1.57   1.95   2.27   2.54   2.57   4.12   4.14   5.13
          5.70   7.70   7.73   7.96   8.52   8.55   9.33   9.54   9.74   9.86
          9.92  10.57  11.10  11.65  11.68  12.04  12.67  12.86  12.91  12.95
         13.53  13.75  13.77  14.45  15.00  15.24  15.27  15.46  17.53  18.39
         18.42  19.25  20.01  20.06  20.43  20.52  21.71  21.72  21.96  22.44
         25.43  26.03  26.14  26.19  27.94  36.00  36.03  41.16  44.58  44.67
         51.09  51.87  53.92  54.13  59.88  61.37  63.49  70.01  70.11  81.40
         81.52  82.38  84.97  87.79
 105  1 -16.13 -15.49 -15.49 -14.97 -12.00 -11.38 -11.37 -10.57  -9.72  -9.23
         -9.21  -8.61  -7.39  -7.35  -7.34  -6.60  -3.61  -2.89  -2.71  -2.69
         -2.04  -2.01  -1.60  -1.42  -0.35  -0.32  -0.28  -0.12   0.20   0.22
          0.54   1.00   1.57   1.95   2.27   2.54   2.57   4.12   4.14   5.13
          5.70   7.70   7.73   7.96   8.52   8.55   9.33   9.54   9.74   9.86
          9.92  10.57  11.10  11.65  11.68  12.04  12.67  12.86  12.91  12.95
         13.53  13.75  13.77  14.45  15.00  15.24  15.27  15.46  17.53  18.39
         18.42  19.25  20.01  20.06  20.43  20.52  21.71  21.72  21.96  22.44
         25.43  26.03  26.14  26.19  27.94  36.00  36.03  41.16  44.58  44.67
         51.09  51.87  53.92  54.13  59.88  61.37  63.49  70.01  70.11  81.40
         81.52  82.38  84.97  87.79
 106  1 -15.95 -15.39 -15.37 -15.03 -12.47 -12.07 -12.06 -11.42  -8.69  -8.28
         -8.25  -7.54  -7.27  -7.26  -7.24  -6.67  -3.50  -3.46  -3.13  -3.08
         -2.41  -2.39  -2.01  -1.99  -1.54  -1.16  -1.07  -1.03   1.18   1.23
          2.03   2.23   2.36   3.06   3.45   3.87   3.89   4.24   4.26   4.48
          5.07   6.92   6.94   7.13   7.20   7.66   7.95   8.60   8.77   8.83
          8.92   9.22   9.26  10.08  10.46  10.55  13.84  14.08  14.13  15.07
         15.10  15.12  15.57  15.75  15.90  15.95  16.57  16.60  17.73  18.40
         18.41  18.44  19.05  19.14  19.40  19.89  20.55  20.57  21.27  21.86
         27.02  27.12  27.26  28.91  29.07  32.45  32.49  34.66  39.90  41.54
         41.59  48.25  55.29  55.42  58.51  59.47  65.14  76.73  76.81  80.79
         81.57  81.85  90.31  93.78
 107  1 -15.63 -15.27 -15.27 -15.23 -12.57 -12.57 -12.57 -12.17  -7.50  -7.48
         -7.47  -7.09  -7.05  -7.05  -6.83  -6.82  -4.14  -3.72  -3.66  -3.66
         -2.32  -2.30  -2.30  -2.18  -2.14  -1.89  -1.86  -1.85   2.68   2.68
          2.70   3.12   3.96   4.02   4.04   4.04   4.04   5.01   5.34   5.34
          5.35   6.10   6.10   6.12   6.26   6.29   6.29   7.62   7.70   7.87
          7.87   7.90   8.64   8.64   8.72   8.73  15.95  15.95  16.01  16.04
         16.47  16.53  16.72  16.72  16.77  17.40  17.43  17.43  18.14  18.14
         18.30  19.00  19.02  19.02  19.45  19.45  19.46  20.06  20.08  21.89
         28.33  28.48  28.49  29.81  29.97  30.00  30.03  30.05  51.51  51.91
         51.91  56.85  60.54  61.65  61.67  71.69  71.71  72.04  72.95  74.24
         87.74  87.75  87.85 102.92
 108  1 -15.63 -15.27 -15.27 -15.23 -12.57 -12.57 -12.57 -12.17  -7.50  -7.48
         -7.47  -7.09  -7.05  -7.05  -6.83  -6.82  -4.14  -3.72  -3.66  -3.66
         -2.32  -2.30  -2.30  -2.18  -2.14  -1.89  -1.86  -1.85   2.68   2.68
          2.70   3.12   3.96   4.02   4.04   4.04   4.04   5.01   5.34   5.34
          5.35   6.10   6.10   6.12   6.26   6.29   6.29   7.62   7.70   7.87
          7.87   7.90   8.64   8.64   8.72   8.73  15.95  15.95  16.01  16.04
         16.47  16.53  16.72  16.72  16.77  17.40  17.43  17.43  18.14  18.14
         18.30  19.00  19.02  19.02  19.45  19.45  19.46  20.06  20.08  21.89
         28.33  28.48  28.49  29.81  29.97  30.00  30.03  30.05  51.51  51.91
         51.91  56.85  60.54  61.65  61.67  71.69  71.71  72.04  72.95  74.24
         87.74  87.75  87.85 102.92
siesta: Fermi energy =      -5.335431 eV

siesta: Program's energy decomposition (eV):
siesta: Ebs     =      -343.971198
siesta: Eions   =      1510.441798
siesta: Ena     =       465.385135
siesta: Ekin    =       324.900799
siesta: Enl     =       110.958656
siesta: DEna    =         5.187584
siesta: DUscf   =         1.524858
siesta: DUext   =         0.000000
siesta: Exc     =      -259.485599
siesta: eta*DQ  =         0.000000
siesta: Emadel  =         0.000000
siesta: Emeta   =         0.000000
siesta: Emolmec =         0.000000
siesta: Ekinion =         0.000000
siesta: Eharris =      -861.970558
siesta: Etot    =      -861.970366
siesta: FreeEng =      -861.970366

siesta: Final energy (eV):
siesta:  Band Struct. =    -343.971198
siesta:       Kinetic =     324.900799
siesta:       Hartree =      57.929033
siesta:    Ext. field =       0.000000
siesta:   Exch.-corr. =    -259.485599
siesta:  Ion-electron =    -446.389890
siesta:       Ion-ion =    -538.924710
siesta:       Ekinion =       0.000000
siesta:         Total =    -861.970366

siesta: Stress tensor (static) (eV/Ang**3):
siesta:     0.001189   -0.001590   -0.001590
siesta:    -0.001590    0.001189   -0.001590
siesta:    -0.001590   -0.001590    0.001189

siesta: Constrained stress tensor (static) (eV/Ang**3):
siesta:     0.001189   -0.001590   -0.001590
siesta:    -0.001590    0.001189   -0.001590
siesta:    -0.001590   -0.001590    0.001189

siesta: Cell volume =        161.400120 Ang**3

siesta: Pressure (static):
siesta:                Solid            Molecule  Units
siesta:          -0.00001295         -0.00002261  Ry/Bohr**3
siesta:          -0.00118905         -0.00207578  eV/Ang**3
siesta:          -1.90509316         -3.32580551  kBar
(Free)E+ p_basis*V_orbitals  =        -852.996762
(Free)Eharris+ p_basis*V_orbitals  =        -852.997761

* Maximum dynamic memory allocated : Node    0 =    95 MB

* Maximum memory occured during init_pulay_arrrays            

timer: CPU execution times:
timer:  Routine       Calls   Time/call    Tot.time        %
timer:  siesta            1    1185.354    1185.354   100.00
timer:  Setup             1       0.120       0.120     0.01
timer:  bands             3       0.555       1.664     0.14
timer:  writewave         3       0.008       0.024     0.00
timer:  KSV_init          1       0.000       0.000     0.00
timer:  IterMD           11     107.585    1183.434    99.84
timer:  hsparse          11       0.218       2.400     0.20
timer:  overlap          11       0.126       1.388     0.12
timer:  IterSCF          57      17.300     986.105    83.19
timer:  kinefsm          22       0.126       2.780     0.23
timer:  nlefsm           22       4.877     107.287     9.05
timer:  DHSCF            68       9.408     639.716    53.97
timer:  DHSCF1           11       0.051       0.556     0.05
timer:  DHSCF2           11       2.257      24.826     2.09
timer:  REORD           430       0.000       0.032     0.00
timer:  POISON           79       0.004       0.344     0.03
timer:  DHSCF3           68       8.364     568.776    47.98
timer:  rhoofd           68       3.812     259.228    21.87
timer:  cellXC           68       0.011       0.780     0.07
timer:  vmat             68       4.535     308.399    26.02
timer:  MolMec           22       0.000       0.000     0.00
timer:  diagon           57       7.466     425.574    35.90
timer:  c-eigval       7025       0.019     130.568    11.02
timer:  c-buildHS      7025       0.014      98.954     8.35
timer:  cdiag         13950       0.007      96.430     8.14
timer:  cdiag1        13950       0.001       7.036     0.59
timer:  cdiag2        13950       0.002      25.075     2.12
timer:  cdiag3        13950       0.004      62.310     5.26
timer:  cdiag4        13950       0.000       1.656     0.14
timer:  c-eigvec       6925       0.023     162.132    13.68
timer:  c-buildD       6924       0.019     133.962    11.30
timer:  DHSCF4           11       4.139      45.531     3.84
timer:  dfscf            11       3.981      43.787     3.69
timer:  overfsm          11       0.121       1.336     0.11
timer:  optical           1       0.000       0.000     0.00
  

elaps: ELAPSED times:
elaps:  Routine       Calls   Time/call    Tot.time        %
elaps:  siesta            1    1190.088    1190.088   100.00
elaps:  Setup             1       0.120       0.120     0.01
elaps:  bands             3       0.557       1.672     0.14
elaps:  writewave         3       0.007       0.021     0.00
elaps:  KSV_init          1       0.000       0.000     0.00
elaps:  IterMD           11     108.014    1188.159    99.84
elaps:  hsparse          11       0.218       2.399     0.20
elaps:  overlap          11       0.127       1.398     0.12
elaps:  IterSCF          57      17.370     990.097    83.20
elaps:  kinefsm          22       0.126       2.780     0.23
elaps:  nlefsm           22       4.895     107.682     9.05
elaps:  DHSCF            68       9.443     642.145    53.96
elaps:  DHSCF1           11       0.051       0.558     0.05
elaps:  DHSCF2           11       2.265      24.915     2.09
elaps:  REORD           430       0.000       0.026     0.00
elaps:  POISON           79       0.005       0.363     0.03
elaps:  DHSCF3           68       8.396     570.942    47.97
elaps:  rhoofd           68       3.826     260.156    21.86
elaps:  cellXC           68       0.011       0.777     0.07
elaps:  vmat             68       4.553     309.625    26.02
elaps:  MolMec           22       0.000       0.000     0.00
elaps:  diagon           57       7.499     427.429    35.92
elaps:  c-eigval       7025       0.019     131.128    11.02
elaps:  c-buildHS      7025       0.014      99.276     8.34
elaps:  cdiag         13950       0.007      96.937     8.15
elaps:  cdiag1        13950       0.001       7.189     0.60
elaps:  cdiag2        13950       0.002      25.375     2.13
elaps:  cdiag3        13950       0.004      62.235     5.23
elaps:  cdiag4        13950       0.000       1.776     0.15
elaps:  c-eigvec       6925       0.024     162.910    13.69
elaps:  c-buildD       6924       0.019     134.502    11.30
elaps:  DHSCF4           11       4.155      45.709     3.84
elaps:  dfscf            11       3.996      43.961     3.69
elaps:  overfsm          11       0.122       1.342     0.11
elaps:  optical           1       0.000       0.000     0.00
  
>> End of run:  10-MAY-2013   0:27:48

=====================================================================================
=   BAD TERMINATION OF ONE OF YOUR APPLICATION PROCESSES
=   EXIT CODE: 134
=   CLEANING UP REMAINING PROCESSES
=   YOU CAN IGNORE THE BELOW CLEANUP MESSAGES
=====================================================================================
APPLICATION TERMINATED WITH THE EXIT STRING: Aborted (signal 6)
