Siesta Version:                                        siesta-3.2
Architecture  : x86_64-unknown-linux-gnu--unknown
Compiler flags: f95 -g -O2
SERIAL version

* Running in serial mode
Siesta Version:                                        siesta-3.2
Architecture  : x86_64-unknown-linux-gnu--unknown
Compiler flags: f95 -g -O2
SERIAL version

* Running in serial mode
>> Start of run:   9-MAY-2013  20:16:46

                           ***********************       
                           *  WELCOME TO SIESTA  *       
                           ***********************       

reinit: Reading from standard input
>> Start of run:   9-MAY-2013  20:16:46

                           ***********************       
                           *  WELCOME TO SIESTA  *       
                           ***********************       

reinit: Reading from standard input
************************** Dump of input data file ****************************
# FDF for silicon
SystemName             silicon          # Descriptive name of the system
SystemLabel            si          # Short name for naming files
NumberOfAtoms 8
NumberOfSpecies 1
%block ChemicalSpeciesLabel
1 14 Si
%endblock ChemicalSpeciesLabel
LatticeConstant  5.90 Ang
##Basis set Definition##
PAO.BasisType          split        # Type of PAO basis set
PAO.EnergyShift        50 meV
PAO.BasisSize          DZP          # (DZP) Double-z + polarization
#%block LatticeVectors
#0.500 0.500 0.000
#0.500 0.000 0.500
#0.000 0.500 0.500
#%endblock LatticeVectors
AtomicCoordinatesFormat NotScaledCartesianAng
%block AtomicCoordinatesAndAtomicSpecies
	0.00000000	0.00000000	0.00000000  1 Si  1
	1.36000000	1.36000000	1.36000000  1 Si  2
	2.72000000	2.72000000	0.00000000  1 Si  3
	4.08000000	4.08000000	1.36000000  1 Si  4
	2.72000000	0.00000000	2.72000000  1 Si  5
	4.08000000	1.36000000	4.08000000  1 Si  6
	0.00000000	2.72000000	2.72000000  1 Si  7
	1.36000000	4.08000000	4.08000000  1 Si  8
%endblock AtomicCoordinatesAndAtomicSpecies
MeshCutoff 100.0 Ry # 100, 120, 180, 260
kgrid_cutoff 30.0 Bohr # 30, 35, 40, 45
DM.Mixingweight  0.3
DM.NumberPulay    3
DM.Tolerance      1.d-3
DM.UseSaveDM      true
ElectronicTemperature 25 meV
SolutionMethod    diagon
XC.functional      GGA	    # Generalized Gradient Approximation
XC.authors        PBE          # Perdew-Burke-Ernzerhof
SpinPolarized     false
MD.TypeOfRun           CG           # Type of dynamics:
MD.VariableCell        true
MD.NumCGsteps          100          # Number of CG steps for coordinate optimization
MD.MaxCGDispl          0.2 Bohr     # Maximum atomic displacement
                                    #   in one CG step (Bohr)
MD.MaxForceTol         0.04 eV/Ang  # Tolerance in the maximum
                                    #   atomic force (Ry/Bohr)
				
##Output Specification##
WriteMDhistory         true         # Trajectory information
WriteCoorStep          true
WriteCoorXmol          true
WriteMDXmol            true
WriteEigenvalues true
WriteKbands      true
WriteBands       true
WriteWaveFunctions true
WriteMullikenPoP   1
%block BandLines
1	1.000	1.000 1.000 L
25	0.000	0.000	0.000 \Gamma
30	2.000	0.000	0.000 X
10	2.000	0.500	0.500 U
35	0.000	0.000	0.000 \Gamma
%endblock BandLines
%block WaveFuncKPoints
0.0 0.0 0.0 from 1 to 50 # > 16 = 4/2*8 (Valenzelektronen/2, Atomzahl ...)
************************** Dump of input data file ****************************
************************** End of input data file *****************************

reinit: -----------------------------------------------------------------------
reinit: System Name: 
reinit: -----------------------------------------------------------------------
reinit: System Label: siesta                                                      
reinit: -----------------------------------------------------------------------
%endblock WaveFuncKpoints
************************** End of input data file *****************************

reinit: -----------------------------------------------------------------------
reinit: System Name: silicon
reinit: -----------------------------------------------------------------------
reinit: System Label: si                                                          
reinit: -----------------------------------------------------------------------

initatom: Reading input for the pseudopotentials and atomic orbitals ----------

initatom: Reading input for the pseudopotentials and atomic orbitals ----------
 Species number:            1  Label: Si Atomic number:          14
Ground state valence configuration:   3s02  3p02
Reading pseudopotential information in formatted form from Si.psf

Valence configuration for pseudopotential generation:
3s( 2.00) rc: 1.75
3p( 2.00) rc: 1.94
3d( 0.00) rc: 2.09
4f( 0.00) rc: 2.09
 Species number:            1  Label: Si Atomic number:          14
Ground state valence configuration:   3s02  3p02
Reading pseudopotential information in formatted form from Si.psf

Valence configuration for pseudopotential generation:
3s( 2.00) rc: 1.75
3p( 2.00) rc: 1.94
3d( 0.00) rc: 2.09
4f( 0.00) rc: 2.09
For Si, standard SIESTA heuristics set lmxkb to 3
 (one more than the basis l, including polarization orbitals).
Use PS.lmax or PS.KBprojectors blocks to override.
For Si, standard SIESTA heuristics set lmxkb to 3
 (one more than the basis l, including polarization orbitals).
Use PS.lmax or PS.KBprojectors blocks to override.

<basis_specs>
===============================================================================
Si                   Z=  14    Mass=  28.090        Charge= 0.17977+309
Lmxo=1 Lmxkb= 3    BasisType=split      Semic=F
L=0  Nsemic=0  Cnfigmx=3
          n=1  nzeta=2  polorb=0

            splnorm:   0.15000    
               vcte:    0.0000    
               rinn:    0.0000    
<basis_specs>
                rcs:    0.0000      0.0000    
            lambdas:    1.0000      1.0000    
L=1  Nsemic=0  Cnfigmx=3
          n=1  nzeta=2  polorb=1
            splnorm:   0.15000    
               vcte:    0.0000    
===============================================================================
               rinn:    0.0000    
                rcs:    0.0000      0.0000    
Si                   Z=  14    Mass=  28.090        Charge= 0.17977+309
Lmxo=1 Lmxkb= 3    BasisType=split      Semic=F
L=0  Nsemic=0  Cnfigmx=3
            lambdas:    1.0000      1.0000    
-------------------------------------------------------------------------------
L=0  Nkbl=1  erefs: 0.17977+309
          n=1  nzeta=2  polorb=0
L=1  Nkbl=1  erefs: 0.17977+309
            splnorm:   0.15000    
               vcte:    0.0000    
               rinn:    0.0000    
L=2  Nkbl=1  erefs: 0.17977+309
                rcs:    0.0000      0.0000    
L=3  Nkbl=1  erefs: 0.17977+309
            lambdas:    1.0000      1.0000    
L=1  Nsemic=0  Cnfigmx=3
          n=1  nzeta=2  polorb=1
            splnorm:   0.15000    
               vcte:    0.0000    
               rinn:    0.0000    
                rcs:    0.0000      0.0000    
            lambdas:    1.0000      1.0000    
-------------------------------------------------------------------------------
===============================================================================
</basis_specs>
L=0  Nkbl=1  erefs: 0.17977+309

L=1  Nkbl=1  erefs: 0.17977+309
L=2  Nkbl=1  erefs: 0.17977+309
L=3  Nkbl=1  erefs: 0.17977+309
===============================================================================
</basis_specs>

atom: Called for Si                    (Z =  14)

read_vps: Pseudopotential generation method:
read_vps: ATM3      Troullier-Martins                       
Total valence charge:    4.00000

read_vps: Pseudopotential includes a core correction:
read_vps: Pseudo-core for xc-correction
atom: Called for Si                    (Z =  14)

read_vps: Pseudopotential generation method:
read_vps: ATM3      Troullier-Martins                       
Total valence charge:    4.00000

read_vps: Pseudopotential includes a core correction:
read_vps: Pseudo-core for xc-correction

xc_check: Exchange-correlation functional:
xc_check: GGA Perdew, Burke & Ernzerhof 1996

xc_check: Exchange-correlation functional:
xc_check: GGA Perdew, Burke & Ernzerhof 1996
V l=0 = -2*Zval/r beyond r=  2.0104
V l=1 = -2*Zval/r beyond r=  2.0873
V l=2 = -2*Zval/r beyond r=  2.1670
V l=0 = -2*Zval/r beyond r=  2.0104
V l=1 = -2*Zval/r beyond r=  2.0873
V l=2 = -2*Zval/r beyond r=  2.1670
V l=3 = -2*Zval/r beyond r=  2.1670
All V_l potentials equal beyond r=  2.0613
This should be close to max(r_c) in ps generation
All pots = -2*Zval/r beyond r=  2.1670

VLOCAL1: 99.0% of the norm of Vloc inside     10.216 Ry
VLOCAL1: 99.9% of the norm of Vloc inside     23.282 Ry
V l=3 = -2*Zval/r beyond r=  2.1670
All V_l potentials equal beyond r=  2.0613
This should be close to max(r_c) in ps generation
All pots = -2*Zval/r beyond r=  2.1670

VLOCAL1: 99.0% of the norm of Vloc inside     10.216 Ry
VLOCAL1: 99.9% of the norm of Vloc inside     23.282 Ry
atom: Maximum radius for 4*pi*r*r*local-pseudopot. charge    2.45560
atom: Maximum radius for 4*pi*r*r*local-pseudopot. charge    2.45560
atom: Maximum radius for r*vlocal+2*Zval:    2.14012
atom: Maximum radius for r*vlocal+2*Zval:    2.14012
GHOST: No ghost state for L =  0
GHOST: No ghost state for L =  0
GHOST: No ghost state for L =  1
GHOST: No ghost state for L =  1
GHOST: No ghost state for L =  2
GHOST: No ghost state for L =  2
GHOST: No ghost state for L =  3
GHOST: No ghost state for L =  3

KBgen: Kleinman-Bylander projectors: 
   l= 0   rc=  2.306811   el= -0.791441   Ekb=  5.289775   kbcos=  0.291595
   l= 1   rc=  2.394965   el= -0.300632   Ekb=  1.944256   kbcos=  0.287657
   l= 2   rc=  2.549439   el=  0.001958   Ekb= -1.788485   kbcos= -0.056492

   l= 3   rc=  2.782581   el=  0.003046   Ekb= -0.472620   kbcos= -0.006203

KBgen: Total number of  Kleinman-Bylander projectors:   16
atom: -------------------------------------------------------------------------

atom: SANKEY-TYPE ORBITALS:
atom: Selected multiple-zeta basis: split     
KBgen: Kleinman-Bylander projectors: 
   l= 0   rc=  2.306811   el= -0.791441   Ekb=  5.289775   kbcos=  0.291595
   l= 1   rc=  2.394965   el= -0.300632   Ekb=  1.944256   kbcos=  0.287657
   l= 2   rc=  2.549439   el=  0.001958   Ekb= -1.788485   kbcos= -0.056492
   l= 3   rc=  2.782581   el=  0.003046   Ekb= -0.472620   kbcos= -0.006203

KBgen: Total number of  Kleinman-Bylander projectors:   16
atom: -------------------------------------------------------------------------

atom: SANKEY-TYPE ORBITALS:
atom: Selected multiple-zeta basis: split     

SPLIT: Orbitals with angular momentum L= 0

SPLIT: Basis orbitals for state 3s

SPLIT: Orbitals with angular momentum L= 0

SPLIT: Basis orbitals for state 3s

SPLIT: PAO cut-off radius determined from an
SPLIT: energy shift=  0.003675 Ry

SPLIT: PAO cut-off radius determined from an
SPLIT: energy shift=  0.003675 Ry

   izeta = 1
                 lambda =    1.000000
                     rc =    6.116033
                 energy =   -0.788343
                kinetic =    0.528041
    potential(screened) =   -1.316383
       potential(ionic) =   -3.704743

   izeta = 1
                 lambda =    1.000000
                     rc =    6.116033
                 energy =   -0.788343
                kinetic =    0.528041
    potential(screened) =   -1.316383
       potential(ionic) =   -3.704743

   izeta = 2
                 rmatch =    4.530823
              splitnorm =    0.150000
                 energy =   -0.692892
                kinetic =    0.848665
    potential(screened) =   -1.541557
       potential(ionic) =   -4.044985

   izeta = 2
                 rmatch =    4.530823
              splitnorm =    0.150000
                 energy =   -0.692892
                kinetic =    0.848665
    potential(screened) =   -1.541557
       potential(ionic) =   -4.044985

SPLIT: Orbitals with angular momentum L= 1

SPLIT: Basis orbitals for state 3p

SPLIT: Orbitals with angular momentum L= 1

SPLIT: Basis orbitals for state 3p

SPLIT: PAO cut-off radius determined from an
SPLIT: energy shift=  0.003675 Ry

SPLIT: PAO cut-off radius determined from an
SPLIT: energy shift=  0.003675 Ry

   izeta = 1
                 lambda =    1.000000
                     rc =    7.853192
                 energy =   -0.297152
                kinetic =    0.797948
    potential(screened) =   -1.095101
       potential(ionic) =   -3.275753

   izeta = 1
                 lambda =    1.000000
                     rc =    7.853192
                 energy =   -0.297152
                kinetic =    0.797948
    potential(screened) =   -1.095101
       potential(ionic) =   -3.275753

   izeta = 2
                 rmatch =    5.330310
              splitnorm =    0.150000
                 energy =   -0.228170
                kinetic =    1.148579
    potential(screened) =   -1.376749
       potential(ionic) =   -3.739005

   izeta = 2
                 rmatch =    5.330310
              splitnorm =    0.150000
                 energy =   -0.228170
                kinetic =    1.148579
    potential(screened) =   -1.376749
       potential(ionic) =   -3.739005

POLgen: Perturbative polarization orbital with L=  2

POLgen: Polarization orbital for state 3p

POLgen: Perturbative polarization orbital with L=  2

POLgen: Polarization orbital for state 3p

   izeta = 1
                     rc =    7.853192
                 energy =    0.340222
                kinetic =    1.096718
    potential(screened) =   -0.756496
       potential(ionic) =   -2.716423

   izeta = 1
                     rc =    7.853192
                 energy =    0.340222
                kinetic =    1.096718
    potential(screened) =   -0.756496
       potential(ionic) =   -2.716423
atom: Total number of Sankey-type orbitals: 13

atm_pop: Valence configuration (for local Pseudopot. screening):
 3s( 2.00)                                                            
 3p( 2.00)                                                            
Vna: chval, zval:    4.00000   4.00000

Vna:  Cut-off radius for the neutral-atom potential:   7.853192
atom: Total number of Sankey-type orbitals: 13

atm_pop: Valence configuration (for local Pseudopot. screening):
 3s( 2.00)                                                            
 3p( 2.00)                                                            
Vna: chval, zval:    4.00000   4.00000

Vna:  Cut-off radius for the neutral-atom potential:   7.853192
comcore: Pseudo-core radius Rcore=  2.999314
comcore: Pseudo-core radius Rcore=  2.999314

atom: _________________________________________________________________________

prinput: Basis input ----------------------------------------------------------

PAO.BasisType split     

%block ChemicalSpeciesLabel
    1   14 Si                      # Species index, atomic number, species label
%endblock ChemicalSpeciesLabel

%block PAO.Basis                 # Define Basis set
Si                    2                    # Species label, number of l-shells
 n=3   0   2                         # n, l, Nzeta 
   6.116      4.531   
   1.000      1.000   
 n=3   1   2 P   1                   # n, l, Nzeta, Polarization, NzetaPol
   7.853      5.330   
   1.000      1.000   
%endblock PAO.Basis

prinput: ----------------------------------------------------------------------


atom: _________________________________________________________________________

prinput: Basis input ----------------------------------------------------------

PAO.BasisType split     

%block ChemicalSpeciesLabel
    1   14 Si                      # Species index, atomic number, species label
%endblock ChemicalSpeciesLabel

%block PAO.Basis                 # Define Basis set
Si                    2                    # Species label, number of l-shells
 n=3   0   2                         # n, l, Nzeta 
   6.116      4.531   
   1.000      1.000   
 n=3   1   2 P   1                   # n, l, Nzeta, Polarization, NzetaPol
   7.853      5.330   
   1.000      1.000   
%endblock PAO.Basis

prinput: ----------------------------------------------------------------------

coor:   Atomic-coordinates input format  =     Cartesian coordinates
coor:                                          (in Angstroms)

siesta: Atomic coordinates (Bohr) and species
siesta:      0.00000   0.00000   0.00000  1        1
siesta:      2.57003   2.57003   2.57003  1        2
siesta:      5.14006   5.14006   0.00000  1        3
siesta:      7.71009   7.71009   2.57003  1        4
siesta:      5.14006   0.00000   5.14006  1        5
siesta:      7.71009   2.57003   7.71009  1        6
siesta:      0.00000   5.14006   5.14006  1        7
siesta:      2.57003   7.71009   7.71009  1        8

siesta: System type = bulk      

initatomlists: Number of atoms, orbitals, and projectors:      8   104   128

siesta: ******************** Simulation parameters ****************************
siesta:
siesta: The following are some of the parameters of the simulation.
siesta: A complete list of the parameters used, including default values,
siesta: can be found in file out.fdf
siesta:
redata: Non-Collinear-spin run           =     F
redata: SpinPolarized (Up/Down) run      =     F
redata: Number of spin components        =     1
redata: Long output                      =     F
redata: Number of Atomic Species         =        1
redata: Charge density info will appear in .RHO file
redata: Write Mulliken Pop.              =     Atomic and Orbital charges
redata: Mesh Cutoff                      =   100.0000  Ry
redata: Net charge of the system         =     0.0000 |e|
redata: Max. number of SCF Iter          =       50
redata: Performing Pulay mixing using    =     3 iterations
redata: Mix DM in first SCF step ?       =     F
redata: Write Pulay info on disk?        =     F
redata: Discard 1st Pulay DM after  kick =     F
redata: New DM Mixing Weight             =     0.3000
redata: New DM Occupancy tolerance       = 0.000000000001
coor:   Atomic-coordinates input format  =     Cartesian coordinates
coor:                                          (in Angstroms)
redata: No kicks to SCF
redata: DM Mixing Weight for Kicks       =     0.5000
redata: DM Tolerance for SCF             =     0.001000
redata: Require Energy convergence for SCF =     F
redata: DM Energy tolerance for SCF      =     0.000100 eV
redata: Require Harris convergence for SCF =     F
redata: DM Harris energy tolerance for SCF =     0.000100 eV
redata: Using Saved Data (generic)   =     F
redata: Use continuation files for DM    =     T
redata: Neglect nonoverlap interactions  =     F
redata: Method of Calculation            =     Diagonalization
redata: Divide and Conquer               =     T
redata: Electronic Temperature           =     0.0018  Ry

siesta: Atomic coordinates (Bohr) and species
siesta:      0.00000   0.00000   0.00000  1        1
siesta:      2.57003   2.57003   2.57003  1        2
siesta:      5.14006   5.14006   0.00000  1        3
siesta:      7.71009   7.71009   2.57003  1        4
siesta:      5.14006   0.00000   5.14006  1        5
siesta:      7.71009   2.57003   7.71009  1        6
siesta:      0.00000   5.14006   5.14006  1        7
siesta:      2.57003   7.71009   7.71009  1        8
redata: Fix the spin of the system       =     F

siesta: System type = bulk      

initatomlists: Number of atoms, orbitals, and projectors:      8   104   128

siesta: ******************** Simulation parameters ****************************
siesta:
siesta: The following are some of the parameters of the simulation.
siesta: A complete list of the parameters used, including default values,
siesta: can be found in file out.fdf
siesta:
redata: Non-Collinear-spin run           =     F
redata: SpinPolarized (Up/Down) run      =     F
redata: Number of spin components        =     1
redata: Long output                      =     F
redata: Number of Atomic Species         =        1
redata: Charge density info will appear in .RHO file
redata: Write Mulliken Pop.              =     Atomic and Orbital charges
redata: Dynamics option                  =     CG coord. optimization
redata: Variable cell                    =     T
redata: Use continuation files for CG    =     F
redata: Max atomic displ per move        =     0.2000  Bohr
redata: Maximum number of CG moves       =      100
redata: Force tolerance                  =     0.0016  Ry/Bohr
redata: Stress tolerance                 =     1.0000  GPa
redata: Mesh Cutoff                      =   100.0000  Ry
redata: Net charge of the system         =     0.0000 |e|
redata: Max. number of SCF Iter          =       50
redata: Performing Pulay mixing using    =     3 iterations
redata: Mix DM in first SCF step ?       =     F
redata: Write Pulay info on disk?        =     F
redata: Discard 1st Pulay DM after  kick =     F
redata: New DM Mixing Weight             =     0.3000
redata: New DM Occupancy tolerance       = 0.000000000001
redata: No kicks to SCF
redata: DM Mixing Weight for Kicks       =     0.5000
redata: DM Tolerance for SCF             =     0.001000
redata: ***********************************************************************
redata: Require Energy convergence for SCF =     F
redata: DM Energy tolerance for SCF      =     0.000100 eV
redata: Require Harris convergence for SCF =     F
redata: DM Harris energy tolerance for SCF =     0.000100 eV
redata: Using Saved Data (generic)   =     F
redata: Use continuation files for DM    =     T
redata: Neglect nonoverlap interactions  =     F
redata: Method of Calculation            =     Diagonalization
redata: Divide and Conquer               =     T
redata: Electronic Temperature           =     0.0018  Ry
redata: Fix the spin of the system       =     F
redata: Dynamics option                  =     CG coord. optimization
redata: Variable cell                    =     T
redata: Use continuation files for CG    =     F
redata: Max atomic displ per move        =     0.2000  Bohr
redata: Maximum number of CG moves       =      100
redata: Force tolerance                  =     0.0016  Ry/Bohr
redata: Stress tolerance                 =     1.0000  GPa
Total number of electrons:    32.000000
Total ionic charge:    32.000000
redata: ***********************************************************************
 Kpoints in:          108 . Kpoints trimmed:          108

siesta: k-grid: Number of k-points =   108
siesta: k-grid: Cutoff (effective) =    17.700 Ang
siesta: k-grid: Supercell and displacements
siesta: k-grid:    0   6   0      0.500
siesta: k-grid:    0   0   6      0.500
siesta: k-grid:    6   0   0      0.500
Total number of electrons:    32.000000
Total ionic charge:    32.000000
 Kpoints in:          108 . Kpoints trimmed:          108

siesta: k-grid: Number of k-points =   108
siesta: k-grid: Cutoff (effective) =    17.700 Ang
siesta: k-grid: Supercell and displacements
siesta: k-grid:    0   6   0      0.500
siesta: k-grid:    0   0   6      0.500
siesta: k-grid:    6   0   0      0.500
Naive supercell factors:     4    4    4

superc: Internal auxiliary supercell:     4 x     4 x     4  =      64
superc: Number of atoms, orbitals, and projectors:    512   6656   8192

* Maximum dynamic memory allocated =     1 MB

siesta:                 ==============================
                            Begin CG move =      0
                        ==============================

outcoor: Atomic coordinates (Ang):                          
    0.00000000    0.00000000    0.00000000   1       1  Si
    1.36000000    1.36000000    1.36000000   1       2  Si
    2.72000000    2.72000000    0.00000000   1       3  Si
    4.08000000    4.08000000    1.36000000   1       4  Si
    2.72000000    0.00000000    2.72000000   1       5  Si
    4.08000000    1.36000000    4.08000000   1       6  Si
    0.00000000    2.72000000    2.72000000   1       7  Si
    1.36000000    4.08000000    4.08000000   1       8  Si

superc: Internal auxiliary supercell:     4 x     4 x     4  =      64
superc: Number of atoms, orbitals, and projectors:    512   6656   8192

outcell: Unit cell vectors (Ang):
        5.900000    0.000000    0.000000
        0.000000    5.900000    0.000000
        0.000000    0.000000    5.900000

outcell: Cell vector modules (Ang)   :    5.900000    5.900000    5.900000
outcell: Cell angles (23,13,12) (deg):     90.0000     90.0000     90.0000
outcell: Cell volume (Ang**3)        :    205.3790
Naive supercell factors:     4    4    4

superc: Internal auxiliary supercell:     4 x     4 x     4  =      64
superc: Number of atoms, orbitals, and projectors:    512   6656   8192

* Maximum dynamic memory allocated =     1 MB

siesta:                 ==============================
                            Begin CG move =      0
                        ==============================

outcoor: Atomic coordinates (Ang):                          
    0.00000000    0.00000000    0.00000000   1       1  Si
    1.36000000    1.36000000    1.36000000   1       2  Si
    2.72000000    2.72000000    0.00000000   1       3  Si
    4.08000000    4.08000000    1.36000000   1       4  Si
    2.72000000    0.00000000    2.72000000   1       5  Si
    4.08000000    1.36000000    4.08000000   1       6  Si
    0.00000000    2.72000000    2.72000000   1       7  Si
    1.36000000    4.08000000    4.08000000   1       8  Si

superc: Internal auxiliary supercell:     4 x     4 x     4  =      64
superc: Number of atoms, orbitals, and projectors:    512   6656   8192

outcell: Unit cell vectors (Ang):
        5.900000    0.000000    0.000000
        0.000000    5.900000    0.000000
        0.000000    0.000000    5.900000

outcell: Cell vector modules (Ang)   :    5.900000    5.900000    5.900000
outcell: Cell angles (23,13,12) (deg):     90.0000     90.0000     90.0000
outcell: Cell volume (Ang**3)        :    205.3790
New_DM. Step:     1
Initializing Density Matrix...
New_DM. Step:     1
Initializing Density Matrix...

InitMesh: MESH =    36 x    36 x    36 =       46656
InitMesh: Mesh cutoff (required, used) =   100.000   102.897 Ry

InitMesh: MESH =    36 x    36 x    36 =       46656
InitMesh: Mesh cutoff (required, used) =   100.000   102.897 Ry

* Maximum dynamic memory allocated =    58 MB

* Maximum dynamic memory allocated =    58 MB

stepf: Fermi-Dirac step function

stepf: Fermi-Dirac step function

siesta: Program's energy decomposition (eV):
siesta: Ebs     =      -317.505314
siesta: Eions   =      1510.441798
siesta: Ena     =       480.525978
siesta: Ekin    =       288.667622
siesta: Enl     =       146.813657
siesta: DEna    =         0.000001
siesta: DUscf   =         0.000000
siesta: DUext   =         0.000000
siesta: Exc     =      -434.677961
siesta: eta*DQ  =         0.000000
siesta: Emadel  =         0.000000
siesta: Emeta   =         0.000000
siesta: Emolmec =         0.000000
siesta: Ekinion =         0.000000
siesta: Eharris =     -1027.012173
siesta: Etot    =     -1029.112501
siesta: FreeEng =     -1029.112501

siesta: iscf   Eharris(eV)      E_KS(eV)   FreeEng(eV)   dDmax  Ef(eV)
siesta:    1    -1027.0122    -1029.1125    -1029.1125  1.8599 -5.0120
timer: Routine,Calls,Time,% = IterSCF        1      12.725  96.25
elaps: Routine,Calls,Wall,% = IterSCF        1      12.780  96.23

siesta: Program's energy decomposition (eV):
siesta: Ebs     =      -317.505314
siesta: Eions   =      1510.441798
siesta: Ena     =       480.525978
siesta: Ekin    =       288.667622
siesta: Enl     =       146.813657
siesta: DEna    =         0.000001
siesta: DUscf   =         0.000000
siesta: DUext   =         0.000000
siesta: Exc     =      -434.677961
siesta: eta*DQ  =         0.000000
siesta: Emadel  =         0.000000
siesta: Emeta   =         0.000000
siesta: Emolmec =         0.000000
siesta: Ekinion =         0.000000
siesta: Eharris =     -1027.012173
siesta: Etot    =     -1029.112501
siesta: FreeEng =     -1029.112501

siesta: iscf   Eharris(eV)      E_KS(eV)   FreeEng(eV)   dDmax  Ef(eV)
siesta:    1    -1027.0122    -1029.1125    -1029.1125  1.8599 -5.0120
timer: Routine,Calls,Time,% = IterSCF        1      12.737  96.31
elaps: Routine,Calls,Wall,% = IterSCF        1      12.790  96.29
siesta:    2    -1026.9637    -1026.8442    -1026.8464  0.0671 -4.8385
siesta:    2    -1026.9637    -1026.8442    -1026.8464  0.0671 -4.8385
siesta:    3    -1026.8999    -1026.9033    -1026.9058  0.0215 -4.8708
siesta:    3    -1026.8999    -1026.9033    -1026.9058  0.0215 -4.8708
siesta:    4    -1026.8956    -1026.8939    -1026.8960  0.0137 -4.8626
siesta:    4    -1026.8956    -1026.8939    -1026.8960  0.0137 -4.8626
siesta:    5    -1026.8947    -1026.8967    -1026.8988  0.0076 -4.8686
siesta:    5    -1026.8947    -1026.8967    -1026.8988  0.0076 -4.8686
siesta:    6    -1026.8946    -1026.8957    -1026.8979  0.0042 -4.8692
siesta:    6    -1026.8946    -1026.8957    -1026.8979  0.0042 -4.8692
siesta:    7    -1026.8946    -1026.8945    -1026.8966  0.0007 -4.8702
siesta:    7    -1026.8946    -1026.8945    -1026.8966  0.0007 -4.8702

siesta: E_KS(eV) =            -1026.8944

siesta: E_KS - E_eggbox =     -1026.8944

siesta: Atomic forces (eV/Ang):
----------------------------------------
   Tot    0.002546    0.002549    0.002543
----------------------------------------
   Max    2.431513
   Res    1.431356    sqrt( Sum f_i^2 / 3N )
----------------------------------------
   Max    2.431513    constrained

Stress-tensor-Voigt (kbar):       79.08       79.08       79.08      -12.32      -12.32      -12.32
(Free)E + p*V (eV/cell)    -1037.0332
Target enthalpy (eV/cell)    -1026.8965

siesta: Stress tensor (static) (eV/Ang**3):
         0.049356   -0.007687   -0.007687
        -0.007687    0.049356   -0.007687
        -0.007687   -0.007687    0.049356

siesta: Pressure (static):        -79.07790754  kBar

siesta: Stress tensor (total) (eV/Ang**3):
         0.049356   -0.007687   -0.007687
        -0.007687    0.049356   -0.007687
        -0.007687   -0.007687    0.049356

siesta: Pressure (total):        -79.07790754  kBar

mulliken: Mulliken Atomic and Orbital Populations:

Species: Si                  
Atom  Qatom  Qorb
               3s      3s      3py     3pz     3px     3py     3pz     3px     
               3Pdxy   3Pdyz   3Pdz2   3Pdxz   3Pdx2-y2
   1  4.114   1.102   0.366   0.520   0.520   0.520   0.268   0.268   0.268
              0.070   0.070   0.037   0.070   0.037
   2  3.961   0.503   0.650   0.212   0.212   0.212   0.542   0.542   0.542
              0.128   0.128   0.082   0.128   0.082
   3  3.957   0.685   0.564   0.341   0.276   0.341   0.423   0.466   0.423
              0.097   0.107   0.076   0.107   0.053
   4  4.018   0.896   0.464   0.382   0.471   0.382   0.380   0.305   0.380
              0.093   0.083   0.042   0.083   0.054
   5  3.957   0.685   0.564   0.276   0.341   0.341   0.466   0.423   0.423
              0.107   0.107   0.058   0.097   0.070
   6  4.018   0.896   0.464   0.471   0.382   0.382   0.305   0.380   0.380
              0.083   0.083   0.051   0.093   0.045
   7  3.957   0.685   0.564   0.341   0.341   0.276   0.423   0.423   0.466
              0.107   0.097   0.058   0.107   0.070
   8  4.018   0.896   0.464   0.382   0.382   0.471   0.380   0.380   0.305
              0.083   0.093   0.051   0.083   0.045

mulliken: Qtot =       32.000

cgvc: No target stress found, assuming hydrostatic MD.TargetPressure.

cgvc: Target stress (kBar)
cgvc:        -0.000       0.000       0.000
cgvc:         0.000      -0.000       0.000
cgvc:         0.000       0.000      -0.000

* Maximum dynamic memory allocated =    59 MB

siesta:                 ==============================
                            Begin CG move =      1
                        ==============================

outcoor: Atomic coordinates (Ang):                          
   -0.02484589   -0.02484587   -0.02484589   1       1  Si
    1.35118155    1.35118160    1.35118149   1       2  Si
    2.71064649    2.71064648   -0.02792600   1       3  Si
    4.08682819    4.08682819    1.36533754   1       4  Si
    2.71064644   -0.02792599    2.71064650   1       5  Si
    4.08682830    1.36533751    4.08682828   1       6  Si
   -0.02792594    2.71064646    2.71064653   1       7  Si
    1.36533748    4.08682822    4.08682823   1       8  Si
 Kpoints in:          108 . Kpoints trimmed:          108

siesta: k-grid: Number of k-points =   108
siesta: k-grid: Cutoff (effective) =    17.603 Ang
siesta: k-grid: Supercell and displacements
siesta: k-grid:    0   6   0      0.500
siesta: k-grid:    6   0   0      0.500
siesta: k-grid:    0   0   6      0.500
Naive supercell factors:     4    4    4

superc: Internal auxiliary supercell:     4 x     4 x     4  =      64
superc: Number of atoms, orbitals, and projectors:    512   6656   8192

outcell: Unit cell vectors (Ang):
        5.867793    0.005016    0.005016
        0.005016    5.867793    0.005016
        0.005016    0.005016    5.867793

outcell: Cell vector modules (Ang)   :    5.867798    5.867798    5.867798
outcell: Cell angles (23,13,12) (deg):     89.9020     89.9020     89.9020
outcell: Cell volume (Ang**3)        :    202.0336

siesta: E_KS(eV) =            -1026.8944

siesta: E_KS - E_eggbox =     -1026.8944

siesta: Atomic forces (eV/Ang):
----------------------------------------
   Tot    0.002546    0.002549    0.002543
----------------------------------------
   Max    2.431513
   Res    1.431356    sqrt( Sum f_i^2 / 3N )
----------------------------------------
   Max    2.431513    constrained

Stress-tensor-Voigt (kbar):       79.08       79.08       79.08      -12.32      -12.32      -12.32
(Free)E + p*V (eV/cell)    -1037.0332
Target enthalpy (eV/cell)    -1026.8965

siesta: Stress tensor (static) (eV/Ang**3):
         0.049356   -0.007687   -0.007687
        -0.007687    0.049356   -0.007687
        -0.007687   -0.007687    0.049356

siesta: Pressure (static):        -79.07790754  kBar

siesta: Stress tensor (total) (eV/Ang**3):
         0.049356   -0.007687   -0.007687
        -0.007687    0.049356   -0.007687
        -0.007687   -0.007687    0.049356

siesta: Pressure (total):        -79.07790754  kBar

mulliken: Mulliken Atomic and Orbital Populations:

Species: Si                  
Atom  Qatom  Qorb
               3s      3s      3py     3pz     3px     3py     3pz     3px     
               3Pdxy   3Pdyz   3Pdz2   3Pdxz   3Pdx2-y2
   1  4.114   1.102   0.366   0.520   0.520   0.520   0.268   0.268   0.268
              0.070   0.070   0.037   0.070   0.037
   2  3.961   0.503   0.650   0.212   0.212   0.212   0.542   0.542   0.542
              0.128   0.128   0.082   0.128   0.082
   3  3.957   0.685   0.564   0.341   0.276   0.341   0.423   0.466   0.423
              0.097   0.107   0.076   0.107   0.053
   4  4.018   0.896   0.464   0.382   0.471   0.382   0.380   0.305   0.380
              0.093   0.083   0.042   0.083   0.054
   5  3.957   0.685   0.564   0.276   0.341   0.341   0.466   0.423   0.423
              0.107   0.107   0.058   0.097   0.070
   6  4.018   0.896   0.464   0.471   0.382   0.382   0.305   0.380   0.380
              0.083   0.083   0.051   0.093   0.045
   7  3.957   0.685   0.564   0.341   0.341   0.276   0.423   0.423   0.466
              0.107   0.097   0.058   0.107   0.070
   8  4.018   0.896   0.464   0.382   0.382   0.471   0.380   0.380   0.305
              0.083   0.093   0.051   0.083   0.045

mulliken: Qtot =       32.000

cgvc: No target stress found, assuming hydrostatic MD.TargetPressure.

cgvc: Target stress (kBar)
cgvc:        -0.000       0.000       0.000
cgvc:         0.000      -0.000       0.000
cgvc:         0.000       0.000      -0.000

* Maximum dynamic memory allocated =    59 MB

siesta:                 ==============================
                            Begin CG move =      1
                        ==============================

outcoor: Atomic coordinates (Ang):                          
   -0.02484589   -0.02484587   -0.02484589   1       1  Si
    1.35118155    1.35118160    1.35118149   1       2  Si
    2.71064649    2.71064648   -0.02792600   1       3  Si
    4.08682819    4.08682819    1.36533754   1       4  Si
    2.71064644   -0.02792599    2.71064650   1       5  Si
    4.08682830    1.36533751    4.08682828   1       6  Si
   -0.02792594    2.71064646    2.71064653   1       7  Si
    1.36533748    4.08682822    4.08682823   1       8  Si
 Kpoints in:          108 . Kpoints trimmed:          108

siesta: k-grid: Number of k-points =   108
siesta: k-grid: Cutoff (effective) =    17.603 Ang
siesta: k-grid: Supercell and displacements
siesta: k-grid:    0   6   0      0.500
siesta: k-grid:    6   0   0      0.500
siesta: k-grid:    0   0   6      0.500
Naive supercell factors:     4    4    4

superc: Internal auxiliary supercell:     4 x     4 x     4  =      64
superc: Number of atoms, orbitals, and projectors:    512   6656   8192

outcell: Unit cell vectors (Ang):
        5.867793    0.005016    0.005016
        0.005016    5.867793    0.005016
        0.005016    0.005016    5.867793

outcell: Cell vector modules (Ang)   :    5.867798    5.867798    5.867798
outcell: Cell angles (23,13,12) (deg):     89.9020     89.9020     89.9020
outcell: Cell volume (Ang**3)        :    202.0336
New_DM. Step:     2
Re-using DM from previous geometry...
Re-using DM without extrapolation (not allowed)
Density Matrix sparsity pattern changed.
New_DM. Step:     2
Re-using DM from previous geometry...
Re-using DM without extrapolation (not allowed)
Density Matrix sparsity pattern changed.

InitMesh: MESH =    36 x    36 x    36 =       46656
InitMesh: Mesh cutoff (required, used) =   100.000   104.030 Ry

InitMesh: MESH =    36 x    36 x    36 =       46656
InitMesh: Mesh cutoff (required, used) =   100.000   104.030 Ry

siesta: iscf   Eharris(eV)      E_KS(eV)   FreeEng(eV)   dDmax  Ef(eV)
siesta:    1    -1027.7193    -1027.5502    -1027.5524  0.0602 -4.9188

siesta: iscf   Eharris(eV)      E_KS(eV)   FreeEng(eV)   dDmax  Ef(eV)
siesta:    1    -1027.7193    -1027.5502    -1027.5524  0.0602 -4.9188
siesta:    2    -1027.8667    -1027.6073    -1027.6092  0.0629 -4.9430
siesta:    2    -1027.8667    -1027.6073    -1027.6092  0.0629 -4.9430
siesta:    3    -1027.6849    -1027.6070    -1027.6094  0.0267 -4.9350
siesta:    3    -1027.6849    -1027.6070    -1027.6094  0.0267 -4.9350
siesta:    4    -1027.6849    -1027.6684    -1027.6705  0.0021 -4.9304
siesta:    4    -1027.6849    -1027.6684    -1027.6705  0.0021 -4.9304
siesta:    5    -1027.6849    -1027.6756    -1027.6777  0.0014 -4.9301
siesta:    5    -1027.6849    -1027.6756    -1027.6777  0.0014 -4.9301
siesta:    6    -1027.6849    -1027.6815    -1027.6836  0.0003 -4.9304
siesta:    6    -1027.6849    -1027.6815    -1027.6836  0.0003 -4.9304

siesta: E_KS(eV) =            -1027.6833

siesta: Atomic forces (eV/Ang):
----------------------------------------
   Tot    0.005140    0.005137    0.005140
----------------------------------------
   Max    2.008088
   Res    1.231782    sqrt( Sum f_i^2 / 3N )
----------------------------------------
   Max    2.008088    constrained

Stress-tensor-Voigt (kbar):       83.14       83.14       83.14       -7.60       -7.60       -7.60
(Free)E + p*V (eV/cell)    -1038.1697
Target enthalpy (eV/cell)    -1027.6854

siesta: Stress tensor (static) (eV/Ang**3):
         0.051894   -0.004744   -0.004744
        -0.004744    0.051894   -0.004744
        -0.004744   -0.004744    0.051894

siesta: Pressure (static):        -83.14440697  kBar

siesta: Stress tensor (total) (eV/Ang**3):
         0.051894   -0.004744   -0.004744
        -0.004744    0.051894   -0.004744
        -0.004744   -0.004744    0.051894

siesta: Pressure (total):        -83.14440697  kBar

mulliken: Mulliken Atomic and Orbital Populations:

Species: Si                  
Atom  Qatom  Qorb
               3s      3s      3py     3pz     3px     3py     3pz     3px     
               3Pdxy   3Pdyz   3Pdz2   3Pdxz   3Pdx2-y2
   1  4.099   1.057   0.386   0.500   0.500   0.500   0.286   0.286   0.286
              0.074   0.074   0.038   0.074   0.038
   2  3.967   0.533   0.632   0.231   0.231   0.231   0.527   0.527   0.527
              0.124   0.124   0.077   0.124   0.077
   3  3.966   0.689   0.559   0.341   0.273   0.341   0.426   0.472   0.426
              0.098   0.107   0.075   0.107   0.053
   4  4.012   0.868   0.474   0.372   0.453   0.372   0.391   0.325   0.391
              0.096   0.086   0.043   0.086   0.054
   5  3.966   0.689   0.559   0.273   0.341   0.341   0.472   0.426   0.426
              0.107   0.107   0.058   0.098   0.069
   6  4.012   0.868   0.474   0.453   0.372   0.372   0.325   0.391   0.391
              0.086   0.086   0.052   0.096   0.046
   7  3.966   0.689   0.559   0.341   0.341   0.273   0.426   0.426   0.472
              0.107   0.098   0.058   0.107   0.069
   8  4.012   0.868   0.474   0.372   0.372   0.453   0.391   0.391   0.325
              0.086   0.096   0.052   0.086   0.046

mulliken: Qtot =       32.000

* Maximum dynamic memory allocated =    66 MB

siesta:                 ==============================
                            Begin CG move =      2
                        ==============================

outcoor: Atomic coordinates (Ang):                          
   -0.06420937   -0.06420933   -0.06420937   1       1  Si
    1.33713021    1.33713034    1.33713004   1       2  Si
    2.69550328    2.69550325   -0.07184144   1       3  Si
    4.09730256    4.09730256    1.37391945   1       4  Si
    2.69550315   -0.07184140    2.69550332   1       5  Si
    4.09730283    1.37391939    4.09730278   1       6  Si
   -0.07184127    2.69550320    2.69550339   1       7  Si
    1.37391930    4.09730264    4.09730265   1       8  Si
 Kpoints in:          108 . Kpoints trimmed:          108

siesta: k-grid: Number of k-points =   108
siesta: k-grid: Cutoff (effective) =    17.449 Ang
siesta: k-grid: Supercell and displacements
siesta: k-grid:    0   6   0      0.500
siesta: k-grid:    6   0   0      0.500
siesta: k-grid:    0   0   6      0.500
Naive supercell factors:     4    4    4

superc: Internal auxiliary supercell:     4 x     4 x     4  =      64
superc: Number of atoms, orbitals, and projectors:    512   6656   8192

outcell: Unit cell vectors (Ang):
        5.816263    0.013041    0.013041
        0.013041    5.816263    0.013041
        0.013041    0.013041    5.816263

outcell: Cell vector modules (Ang)   :    5.816292    5.816292    5.816292
outcell: Cell angles (23,13,12) (deg):     89.7428     89.7428     89.7428
outcell: Cell volume (Ang**3)        :    196.7549
New_DM. Step:     3
Re-using DM from previous geometry...
Re-using DM without extrapolation (not allowed)
Density Matrix sparsity pattern changed.

siesta: E_KS(eV) =            -1027.6833

siesta: Atomic forces (eV/Ang):
----------------------------------------
   Tot    0.005140    0.005137    0.005140
----------------------------------------
   Max    2.008088
   Res    1.231782    sqrt( Sum f_i^2 / 3N )
----------------------------------------
   Max    2.008088    constrained

Stress-tensor-Voigt (kbar):       83.14       83.14       83.14       -7.60       -7.60       -7.60
(Free)E + p*V (eV/cell)    -1038.1697
Target enthalpy (eV/cell)    -1027.6854

siesta: Stress tensor (static) (eV/Ang**3):
         0.051894   -0.004744   -0.004744
        -0.004744    0.051894   -0.004744
        -0.004744   -0.004744    0.051894

siesta: Pressure (static):        -83.14440697  kBar

siesta: Stress tensor (total) (eV/Ang**3):
         0.051894   -0.004744   -0.004744
        -0.004744    0.051894   -0.004744
        -0.004744   -0.004744    0.051894

siesta: Pressure (total):        -83.14440697  kBar

mulliken: Mulliken Atomic and Orbital Populations:

Species: Si                  
Atom  Qatom  Qorb
               3s      3s      3py     3pz     3px     3py     3pz     3px     
               3Pdxy   3Pdyz   3Pdz2   3Pdxz   3Pdx2-y2
   1  4.099   1.057   0.386   0.500   0.500   0.500   0.286   0.286   0.286
              0.074   0.074   0.038   0.074   0.038
   2  3.967   0.533   0.632   0.231   0.231   0.231   0.527   0.527   0.527
              0.124   0.124   0.077   0.124   0.077
   3  3.966   0.689   0.559   0.341   0.273   0.341   0.426   0.472   0.426
              0.098   0.107   0.075   0.107   0.053
   4  4.012   0.868   0.474   0.372   0.453   0.372   0.391   0.325   0.391
              0.096   0.086   0.043   0.086   0.054
   5  3.966   0.689   0.559   0.273   0.341   0.341   0.472   0.426   0.426
              0.107   0.107   0.058   0.098   0.069
   6  4.012   0.868   0.474   0.453   0.372   0.372   0.325   0.391   0.391
              0.086   0.086   0.052   0.096   0.046
   7  3.966   0.689   0.559   0.341   0.341   0.273   0.426   0.426   0.472
              0.107   0.098   0.058   0.107   0.069
   8  4.012   0.868   0.474   0.372   0.372   0.453   0.391   0.391   0.325
              0.086   0.096   0.052   0.086   0.046

mulliken: Qtot =       32.000

* Maximum dynamic memory allocated =    66 MB

siesta:                 ==============================
                            Begin CG move =      2
                        ==============================

outcoor: Atomic coordinates (Ang):                          
   -0.06420937   -0.06420933   -0.06420937   1       1  Si
    1.33713021    1.33713034    1.33713004   1       2  Si
    2.69550328    2.69550325   -0.07184144   1       3  Si
    4.09730256    4.09730256    1.37391945   1       4  Si
    2.69550315   -0.07184140    2.69550332   1       5  Si
    4.09730283    1.37391939    4.09730278   1       6  Si
   -0.07184127    2.69550320    2.69550339   1       7  Si
    1.37391930    4.09730264    4.09730265   1       8  Si
 Kpoints in:          108 . Kpoints trimmed:          108

siesta: k-grid: Number of k-points =   108
siesta: k-grid: Cutoff (effective) =    17.449 Ang
siesta: k-grid: Supercell and displacements
siesta: k-grid:    0   6   0      0.500
siesta: k-grid:    6   0   0      0.500
siesta: k-grid:    0   0   6      0.500
Naive supercell factors:     4    4    4

superc: Internal auxiliary supercell:     4 x     4 x     4  =      64
superc: Number of atoms, orbitals, and projectors:    512   6656   8192

outcell: Unit cell vectors (Ang):
        5.816263    0.013041    0.013041
        0.013041    5.816263    0.013041
        0.013041    0.013041    5.816263

outcell: Cell vector modules (Ang)   :    5.816292    5.816292    5.816292
outcell: Cell angles (23,13,12) (deg):     89.7428     89.7428     89.7428
outcell: Cell volume (Ang**3)        :    196.7549
New_DM. Step:     3
Re-using DM from previous geometry...
Re-using DM without extrapolation (not allowed)
Density Matrix sparsity pattern changed.

InitMesh: MESH =    36 x    36 x    36 =       46656
InitMesh: Mesh cutoff (required, used) =   100.000   105.884 Ry

InitMesh: MESH =    36 x    36 x    36 =       46656
InitMesh: Mesh cutoff (required, used) =   100.000   105.884 Ry

siesta: iscf   Eharris(eV)      E_KS(eV)   FreeEng(eV)   dDmax  Ef(eV)
siesta:    1    -1028.8269    -1028.6744    -1028.6765  0.0786 -4.9322

siesta: iscf   Eharris(eV)      E_KS(eV)   FreeEng(eV)   dDmax  Ef(eV)
siesta:    1    -1028.8269    -1028.6744    -1028.6765  0.0786 -4.9322
siesta:    2    -1029.1396    -1028.5675    -1028.5685  0.0903 -4.9293
siesta:    2    -1029.1396    -1028.5675    -1028.5685  0.0903 -4.9293
siesta:    3    -1028.7461    -1028.6661    -1028.6661  0.0345 -4.9276
siesta:    3    -1028.7461    -1028.6661    -1028.6661  0.0345 -4.9276
siesta:    4    -1028.7460    -1028.7109    -1028.7111  0.0024 -4.9210
siesta:    4    -1028.7460    -1028.7109    -1028.7111  0.0024 -4.9210
siesta:    5    -1028.7459    -1028.7219    -1028.7221  0.0020 -4.9209
siesta:    5    -1028.7459    -1028.7219    -1028.7221  0.0020 -4.9209
siesta:    6    -1028.7459    -1028.7376    -1028.7378  0.0005 -4.9207
siesta:    6    -1028.7459    -1028.7376    -1028.7378  0.0005 -4.9207

siesta: E_KS(eV) =            -1028.7420

siesta: Atomic forces (eV/Ang):
----------------------------------------
   Tot   -0.001902   -0.001906   -0.001891
----------------------------------------
   Max    1.287240
   Res    0.939011    sqrt( Sum f_i^2 / 3N )
----------------------------------------
   Max    1.287240    constrained

Stress-tensor-Voigt (kbar):       84.46       84.46       84.46       -0.81       -0.81       -0.81
(Free)E + p*V (eV/cell)    -1039.1136
Target enthalpy (eV/cell)    -1028.7422

siesta: Stress tensor (static) (eV/Ang**3):
         0.052712   -0.000506   -0.000506
        -0.000506    0.052712   -0.000506
        -0.000506   -0.000506    0.052712

siesta: Pressure (static):        -84.45548918  kBar

siesta: Stress tensor (total) (eV/Ang**3):
         0.052712   -0.000506   -0.000506
        -0.000506    0.052712   -0.000506
        -0.000506   -0.000506    0.052712

siesta: Pressure (total):        -84.45548918  kBar

mulliken: Mulliken Atomic and Orbital Populations:

Species: Si                  
Atom  Qatom  Qorb
               3s      3s      3py     3pz     3px     3py     3pz     3px     
               3Pdxy   3Pdyz   3Pdz2   3Pdxz   3Pdx2-y2
   1  4.075   0.987   0.412   0.462   0.462   0.462   0.322   0.322   0.322
              0.080   0.080   0.041   0.080   0.041
   2  3.976   0.582   0.606   0.255   0.255   0.255   0.508   0.508   0.508
              0.119   0.119   0.072   0.119   0.072
   3  3.975   0.692   0.552   0.336   0.273   0.336   0.434   0.478   0.434
              0.100   0.109   0.069   0.109   0.053
   4  4.008   0.830   0.488   0.357   0.416   0.357   0.410   0.360   0.410
              0.099   0.090   0.046   0.090   0.055
   5  3.975   0.692   0.552   0.273   0.336   0.336   0.478   0.434   0.434
              0.109   0.109   0.057   0.100   0.065
   6  4.008   0.830   0.488   0.416   0.357   0.357   0.360   0.410   0.410
              0.090   0.090   0.053   0.099   0.049
   7  3.975   0.692   0.552   0.336   0.336   0.273   0.434   0.434   0.478
              0.109   0.100   0.057   0.109   0.065
   8  4.008   0.830   0.488   0.357   0.357   0.416   0.410   0.410   0.360
              0.090   0.099   0.053   0.090   0.049

mulliken: Qtot =       32.000

* Maximum dynamic memory allocated =    66 MB

siesta:                 ==============================
                            Begin CG move =      3
                        ==============================

outcoor: Atomic coordinates (Ang):                          
   -0.12619272   -0.12619264   -0.12619272   1       1  Si
    1.31479700    1.31479725    1.31479667   1       2  Si
    2.67081951    2.67081946   -0.14014475   1       3  Si
    4.11290765    4.11290764    1.38775767   1       4  Si
    2.67081926   -0.14014468    2.67081958   1       5  Si
    4.11290817    1.38775755    4.11290809   1       6  Si
   -0.14014442    2.67081935    2.67081972   1       7  Si
    1.38775738    4.11290780    4.11290782   1       8  Si
 Kpoints in:          108 . Kpoints trimmed:          108

siesta: k-grid: Number of k-points =   108
siesta: k-grid: Cutoff (effective) =    17.202 Ang
siesta: k-grid: Supercell and displacements
siesta: k-grid:    0   6   0      0.500
siesta: k-grid:    6   0   0      0.500
siesta: k-grid:    0   0   6      0.500
Naive supercell factors:     4    4    4

superc: Internal auxiliary supercell:     4 x     4 x     4  =      64
superc: Number of atoms, orbitals, and projectors:    512   6656   8192

outcell: Unit cell vectors (Ang):
        5.733814    0.025882    0.025882
        0.025882    5.733814    0.025882
        0.025882    0.025882    5.733814

outcell: Cell vector modules (Ang)   :    5.733931    5.733931    5.733931
outcell: Cell angles (23,13,12) (deg):     89.4816     89.4816     89.4816
outcell: Cell volume (Ang**3)        :    188.4970

siesta: E_KS(eV) =            -1028.7420

siesta: Atomic forces (eV/Ang):
----------------------------------------
   Tot   -0.001902   -0.001906   -0.001891
----------------------------------------
   Max    1.287240
   Res    0.939011    sqrt( Sum f_i^2 / 3N )
----------------------------------------
   Max    1.287240    constrained

Stress-tensor-Voigt (kbar):       84.46       84.46       84.46       -0.81       -0.81       -0.81
(Free)E + p*V (eV/cell)    -1039.1136
Target enthalpy (eV/cell)    -1028.7422

siesta: Stress tensor (static) (eV/Ang**3):
         0.052712   -0.000506   -0.000506
        -0.000506    0.052712   -0.000506
        -0.000506   -0.000506    0.052712

siesta: Pressure (static):        -84.45548918  kBar

siesta: Stress tensor (total) (eV/Ang**3):
         0.052712   -0.000506   -0.000506
        -0.000506    0.052712   -0.000506
        -0.000506   -0.000506    0.052712

siesta: Pressure (total):        -84.45548918  kBar

mulliken: Mulliken Atomic and Orbital Populations:

Species: Si                  
Atom  Qatom  Qorb
               3s      3s      3py     3pz     3px     3py     3pz     3px     
               3Pdxy   3Pdyz   3Pdz2   3Pdxz   3Pdx2-y2
   1  4.075   0.987   0.412   0.462   0.462   0.462   0.322   0.322   0.322
              0.080   0.080   0.041   0.080   0.041
   2  3.976   0.582   0.606   0.255   0.255   0.255   0.508   0.508   0.508
              0.119   0.119   0.072   0.119   0.072
   3  3.975   0.692   0.552   0.336   0.273   0.336   0.434   0.478   0.434
              0.100   0.109   0.069   0.109   0.053
   4  4.008   0.830   0.488   0.357   0.416   0.357   0.410   0.360   0.410
              0.099   0.090   0.046   0.090   0.055
   5  3.975   0.692   0.552   0.273   0.336   0.336   0.478   0.434   0.434
              0.109   0.109   0.057   0.100   0.065
   6  4.008   0.830   0.488   0.416   0.357   0.357   0.360   0.410   0.410
              0.090   0.090   0.053   0.099   0.049
   7  3.975   0.692   0.552   0.336   0.336   0.273   0.434   0.434   0.478
              0.109   0.100   0.057   0.109   0.065
   8  4.008   0.830   0.488   0.357   0.357   0.416   0.410   0.410   0.360
              0.090   0.099   0.053   0.090   0.049

mulliken: Qtot =       32.000

* Maximum dynamic memory allocated =    66 MB

siesta:                 ==============================
                            Begin CG move =      3
                        ==============================

outcoor: Atomic coordinates (Ang):                          
   -0.12619272   -0.12619264   -0.12619272   1       1  Si
    1.31479700    1.31479725    1.31479667   1       2  Si
    2.67081951    2.67081946   -0.14014475   1       3  Si
    4.11290765    4.11290764    1.38775767   1       4  Si
    2.67081926   -0.14014468    2.67081958   1       5  Si
    4.11290817    1.38775755    4.11290809   1       6  Si
   -0.14014442    2.67081935    2.67081972   1       7  Si
    1.38775738    4.11290780    4.11290782   1       8  Si
 Kpoints in:          108 . Kpoints trimmed:          108

siesta: k-grid: Number of k-points =   108
siesta: k-grid: Cutoff (effective) =    17.202 Ang
siesta: k-grid: Supercell and displacements
siesta: k-grid:    0   6   0      0.500
siesta: k-grid:    6   0   0      0.500
siesta: k-grid:    0   0   6      0.500
Naive supercell factors:     4    4    4

superc: Internal auxiliary supercell:     4 x     4 x     4  =      64
superc: Number of atoms, orbitals, and projectors:    512   6656   8192

outcell: Unit cell vectors (Ang):
        5.733814    0.025882    0.025882
        0.025882    5.733814    0.025882
        0.025882    0.025882    5.733814

outcell: Cell vector modules (Ang)   :    5.733931    5.733931    5.733931
outcell: Cell angles (23,13,12) (deg):     89.4816     89.4816     89.4816
outcell: Cell volume (Ang**3)        :    188.4970
New_DM. Step:     4
Re-using DM from previous geometry...
Re-using DM without extrapolation (not allowed)
Density Matrix sparsity pattern changed.
New_DM. Step:     4
Re-using DM from previous geometry...
Re-using DM without extrapolation (not allowed)
Density Matrix sparsity pattern changed.

InitMesh: MESH =    36 x    36 x    36 =       46656
InitMesh: Mesh cutoff (required, used) =   100.000   108.961 Ry

InitMesh: MESH =    36 x    36 x    36 =       46656
InitMesh: Mesh cutoff (required, used) =   100.000   108.961 Ry

siesta: iscf   Eharris(eV)      E_KS(eV)   FreeEng(eV)   dDmax  Ef(eV)
siesta:    1    -1029.9806    -1030.1238    -1030.1240  0.0908 -4.9865

siesta: iscf   Eharris(eV)      E_KS(eV)   FreeEng(eV)   dDmax  Ef(eV)
siesta:    1    -1029.9806    -1030.1238    -1030.1240  0.0908 -4.9865
siesta:    2    -1030.6787    -1029.3469    -1029.3469  0.1204 -4.8761
siesta:    2    -1030.6787    -1029.3469    -1029.3469  0.1204 -4.8761
siesta:    3    -1029.7740    -1029.7696    -1029.7696  0.0434 -4.9378
siesta:    3    -1029.7740    -1029.7696    -1029.7696  0.0434 -4.9378
siesta:    4    -1029.7735    -1029.6837    -1029.6837  0.0033 -4.9260
siesta:    4    -1029.7735    -1029.6837    -1029.6837  0.0033 -4.9260
siesta:    5    -1029.7733    -1029.7067    -1029.7067  0.0022 -4.9270
siesta:    5    -1029.7733    -1029.7067    -1029.7067  0.0022 -4.9270
siesta:    6    -1029.7733    -1029.7484    -1029.7484  0.0008 -4.9289
siesta:    6    -1029.7733    -1029.7484    -1029.7484  0.0008 -4.9289

siesta: E_KS(eV) =            -1029.7618

siesta: Atomic forces (eV/Ang):
----------------------------------------
   Tot   -0.001513   -0.001517   -0.001514
----------------------------------------
   Max    1.158081
   Res    0.620992    sqrt( Sum f_i^2 / 3N )
----------------------------------------
   Max    1.158081    constrained

Stress-tensor-Voigt (kbar):       71.50       71.50       71.50       10.34       10.34       10.34
(Free)E + p*V (eV/cell)    -1038.1732
Target enthalpy (eV/cell)    -1029.7618

siesta: Stress tensor (static) (eV/Ang**3):
         0.044624    0.006452    0.006452
         0.006452    0.044624    0.006452
         0.006452    0.006452    0.044624

siesta: Pressure (static):        -71.49592634  kBar

siesta: Stress tensor (total) (eV/Ang**3):
         0.044624    0.006452    0.006452
         0.006452    0.044624    0.006452
         0.006452    0.006452    0.044624

siesta: Pressure (total):        -71.49592634  kBar

mulliken: Mulliken Atomic and Orbital Populations:

Species: Si                  
Atom  Qatom  Qorb
               3s      3s      3py     3pz     3px     3py     3pz     3px     
               3Pdxy   3Pdyz   3Pdz2   3Pdxz   3Pdx2-y2
   1  4.034   0.873   0.464   0.391   0.391   0.391   0.384   0.384   0.384
              0.092   0.092   0.048   0.092   0.048
   2  3.989   0.649   0.571   0.285   0.285   0.285   0.483   0.483   0.483
              0.112   0.112   0.065   0.112   0.065
   3  3.992   0.681   0.555   0.320   0.279   0.320   0.453   0.482   0.453
              0.104   0.110   0.067   0.110   0.057
   4  4.001   0.753   0.521   0.326   0.353   0.326   0.443   0.421   0.443
              0.104   0.100   0.053   0.100   0.059
   5  3.992   0.681   0.555   0.279   0.320   0.320   0.482   0.453   0.453
              0.110   0.110   0.060   0.104   0.065
   6  4.001   0.753   0.521   0.353   0.326   0.326   0.421   0.443   0.443
              0.100   0.100   0.058   0.104   0.055
   7  3.992   0.681   0.555   0.320   0.320   0.279   0.453   0.453   0.482
              0.110   0.104   0.060   0.110   0.065
   8  4.001   0.753   0.521   0.326   0.326   0.353   0.443   0.443   0.421
              0.100   0.104   0.058   0.100   0.055

mulliken: Qtot =       32.000

* Maximum dynamic memory allocated =    67 MB

siesta:                 ==============================
                            Begin CG move =      4
                        ==============================

outcoor: Atomic coordinates (Ang):                          
   -0.20271756   -0.20271742   -0.20271756   1       1  Si
    1.28685373    1.28685413    1.28685321   1       2  Si
    2.63884614    2.63884606   -0.22295731   1       3  Si
    4.13058635    4.13058633    1.40542279   1       4  Si
    2.63884575   -0.22295719    2.63884626   1       5  Si
    4.13058718    1.40542259    4.13058705   1       6  Si
   -0.22295678    2.63884589    2.63884648   1       7  Si
    1.40542232    4.13058658    4.13058662   1       8  Si
 Kpoints in:          108 . Kpoints trimmed:          108

siesta: k-grid: Number of k-points =   108
siesta: k-grid: Cutoff (effective) =    16.890 Ang
siesta: k-grid: Supercell and displacements
siesta: k-grid:    0   6   0      0.500
siesta: k-grid:    6   0   0      0.500
siesta: k-grid:    0   0   6      0.500
Naive supercell factors:     4    4    4

superc: Internal auxiliary supercell:     4 x     4 x     4  =      64
superc: Number of atoms, orbitals, and projectors:    512   6656   8192

outcell: Unit cell vectors (Ang):
        5.629687    0.042099    0.042099
        0.042099    5.629687    0.042099
        0.042099    0.042099    5.629687

outcell: Cell vector modules (Ang)   :    5.630002    5.630002    5.630002
outcell: Cell angles (23,13,12) (deg):     89.1399     89.1399     89.1399
outcell: Cell volume (Ang**3)        :    178.3940
New_DM. Step:     5
Re-using DM from previous geometry...
Re-using DM without extrapolation (not allowed)
Density Matrix sparsity pattern changed.

siesta: E_KS(eV) =            -1029.7618

siesta: Atomic forces (eV/Ang):
----------------------------------------
   Tot   -0.001513   -0.001517   -0.001514
----------------------------------------
   Max    1.158081
   Res    0.620992    sqrt( Sum f_i^2 / 3N )
----------------------------------------
   Max    1.158081    constrained

Stress-tensor-Voigt (kbar):       71.50       71.50       71.50       10.34       10.34       10.34
(Free)E + p*V (eV/cell)    -1038.1732
Target enthalpy (eV/cell)    -1029.7618

siesta: Stress tensor (static) (eV/Ang**3):
         0.044624    0.006452    0.006452
         0.006452    0.044624    0.006452
         0.006452    0.006452    0.044624

siesta: Pressure (static):        -71.49592634  kBar

siesta: Stress tensor (total) (eV/Ang**3):
         0.044624    0.006452    0.006452
         0.006452    0.044624    0.006452
         0.006452    0.006452    0.044624

siesta: Pressure (total):        -71.49592634  kBar

mulliken: Mulliken Atomic and Orbital Populations:

Species: Si                  
Atom  Qatom  Qorb
               3s      3s      3py     3pz     3px     3py     3pz     3px     
               3Pdxy   3Pdyz   3Pdz2   3Pdxz   3Pdx2-y2
   1  4.034   0.873   0.464   0.391   0.391   0.391   0.384   0.384   0.384
              0.092   0.092   0.048   0.092   0.048
   2  3.989   0.649   0.571   0.285   0.285   0.285   0.483   0.483   0.483
              0.112   0.112   0.065   0.112   0.065
   3  3.992   0.681   0.555   0.320   0.279   0.320   0.453   0.482   0.453
              0.104   0.110   0.067   0.110   0.057
   4  4.001   0.753   0.521   0.326   0.353   0.326   0.443   0.421   0.443
              0.104   0.100   0.053   0.100   0.059
   5  3.992   0.681   0.555   0.279   0.320   0.320   0.482   0.453   0.453
              0.110   0.110   0.060   0.104   0.065
   6  4.001   0.753   0.521   0.353   0.326   0.326   0.421   0.443   0.443
              0.100   0.100   0.058   0.104   0.055
   7  3.992   0.681   0.555   0.320   0.320   0.279   0.453   0.453   0.482
              0.110   0.104   0.060   0.110   0.065
   8  4.001   0.753   0.521   0.326   0.326   0.353   0.443   0.443   0.421
              0.100   0.104   0.058   0.100   0.055

mulliken: Qtot =       32.000

* Maximum dynamic memory allocated =    67 MB

siesta:                 ==============================
                            Begin CG move =      4
                        ==============================

outcoor: Atomic coordinates (Ang):                          
   -0.20271756   -0.20271742   -0.20271756   1       1  Si
    1.28685373    1.28685413    1.28685321   1       2  Si
    2.63884614    2.63884606   -0.22295731   1       3  Si
    4.13058635    4.13058633    1.40542279   1       4  Si
    2.63884575   -0.22295719    2.63884626   1       5  Si
    4.13058718    1.40542259    4.13058705   1       6  Si
   -0.22295678    2.63884589    2.63884648   1       7  Si
    1.40542232    4.13058658    4.13058662   1       8  Si
 Kpoints in:          108 . Kpoints trimmed:          108

siesta: k-grid: Number of k-points =   108
siesta: k-grid: Cutoff (effective) =    16.890 Ang
siesta: k-grid: Supercell and displacements
siesta: k-grid:    0   6   0      0.500
siesta: k-grid:    6   0   0      0.500
siesta: k-grid:    0   0   6      0.500
Naive supercell factors:     4    4    4

superc: Internal auxiliary supercell:     4 x     4 x     4  =      64
superc: Number of atoms, orbitals, and projectors:    512   6656   8192

outcell: Unit cell vectors (Ang):
        5.629687    0.042099    0.042099
        0.042099    5.629687    0.042099
        0.042099    0.042099    5.629687

outcell: Cell vector modules (Ang)   :    5.630002    5.630002    5.630002
outcell: Cell angles (23,13,12) (deg):     89.1399     89.1399     89.1399
outcell: Cell volume (Ang**3)        :    178.3940
New_DM. Step:     5
Re-using DM from previous geometry...
Re-using DM without extrapolation (not allowed)
Density Matrix sparsity pattern changed.

InitMesh: MESH =    36 x    36 x    36 =       46656
InitMesh: Mesh cutoff (required, used) =   100.000   113.053 Ry

InitMesh: MESH =    36 x    36 x    36 =       46656
InitMesh: Mesh cutoff (required, used) =   100.000   113.053 Ry

siesta: iscf   Eharris(eV)      E_KS(eV)   FreeEng(eV)   dDmax  Ef(eV)
siesta:    1    -1029.9094    -1030.9312    -1030.9312  0.0829 -4.7618

siesta: iscf   Eharris(eV)      E_KS(eV)   FreeEng(eV)   dDmax  Ef(eV)
siesta:    1    -1029.9094    -1030.9312    -1030.9312  0.0829 -4.7618
siesta:    2    -1030.7439    -1029.1385    -1029.1391  0.1135 -4.7970
siesta:    2    -1030.7439    -1029.1385    -1029.1391  0.1135 -4.7970
siesta:    3    -1029.6557    -1029.9299    -1029.9312  0.0427 -4.7326
siesta:    3    -1029.6557    -1029.9299    -1029.9312  0.0427 -4.7326
siesta:    4    -1029.6550    -1029.5464    -1029.5472  0.0039 -4.7238
siesta:    4    -1029.6550    -1029.5464    -1029.5472  0.0039 -4.7238
siesta:    5    -1029.6549    -1029.5642    -1029.5651  0.0016 -4.7249
siesta:    5    -1029.6549    -1029.5642    -1029.5651  0.0016 -4.7249
siesta:    6    -1029.6548    -1029.6279    -1029.6288  0.0007 -4.7261
siesta:    6    -1029.6548    -1029.6279    -1029.6288  0.0007 -4.7261

siesta: E_KS(eV) =            -1029.6414

siesta: Atomic forces (eV/Ang):
----------------------------------------
   Tot    0.002062    0.002070    0.002069
----------------------------------------
   Max    1.916963
   Res    1.082449    sqrt( Sum f_i^2 / 3N )
----------------------------------------
   Max    1.916963    constrained

Stress-tensor-Voigt (kbar):       29.20       29.20       29.20       29.47       29.47       29.47
(Free)E + p*V (eV/cell)    -1032.8941
Target enthalpy (eV/cell)    -1029.6423

siesta: Stress tensor (static) (eV/Ang**3):
         0.018228    0.018393    0.018393
         0.018393    0.018228    0.018393
         0.018393    0.018393    0.018228

siesta: Pressure (static):        -29.20493241  kBar

siesta: Stress tensor (total) (eV/Ang**3):
         0.018228    0.018393    0.018393
         0.018393    0.018228    0.018393
         0.018393    0.018393    0.018228

siesta: Pressure (total):        -29.20493241  kBar

mulliken: Mulliken Atomic and Orbital Populations:

Species: Si                  
Atom  Qatom  Qorb
               3s      3s      3py     3pz     3px     3py     3pz     3px     
               3Pdxy   3Pdyz   3Pdz2   3Pdxz   3Pdx2-y2
   1  3.990   0.713   0.540   0.299   0.299   0.299   0.466   0.466   0.466
              0.106   0.106   0.061   0.106   0.061
   2  3.990   0.719   0.538   0.302   0.302   0.302   0.463   0.463   0.463
              0.106   0.106   0.060   0.106   0.060
   3  4.003   0.651   0.570   0.288   0.272   0.288   0.484   0.494   0.484
              0.110   0.113   0.068   0.113   0.067
   4  4.004   0.650   0.571   0.288   0.269   0.288   0.485   0.496   0.485
              0.110   0.113   0.069   0.113   0.067
   5  4.003   0.651   0.570   0.272   0.288   0.288   0.494   0.484   0.484
              0.113   0.113   0.067   0.110   0.068
   6  4.004   0.650   0.571   0.269   0.288   0.288   0.496   0.485   0.485
              0.113   0.113   0.067   0.110   0.068
   7  4.003   0.651   0.570   0.288   0.288   0.272   0.484   0.484   0.494
              0.113   0.110   0.067   0.113   0.068
   8  4.004   0.650   0.571   0.288   0.288   0.269   0.485   0.485   0.496
              0.113   0.110   0.067   0.113   0.068

mulliken: Qtot =       32.000

* Maximum dynamic memory allocated =    69 MB

siesta:                 ==============================
                            Begin CG move =      5
                        ==============================

outcoor: Atomic coordinates (Ang):                          
   -0.15940887   -0.15940876   -0.15940887   1       1  Si
    1.30271991    1.30272023    1.30271950   1       2  Si
    2.65715107    2.65715100   -0.17630221   1       3  Si
    4.12080345    4.12080343    1.39534409   1       4  Si
    2.65715075   -0.17630212    2.65715115   1       5  Si
    4.12080410    1.39534393    4.12080400   1       6  Si
   -0.17630180    2.65715086    2.65715133   1       7  Si
    1.39534371    4.12080363    4.12080366   1       8  Si
 Kpoints in:          108 . Kpoints trimmed:          108

siesta: k-grid: Number of k-points =   108
siesta: k-grid: Cutoff (effective) =    17.067 Ang
siesta: k-grid: Supercell and displacements
siesta: k-grid:    0   6   0      0.500
siesta: k-grid:    6   0   0      0.500
siesta: k-grid:    0   0   6      0.500
Naive supercell factors:     4    4    4

superc: Internal auxiliary supercell:     4 x     4 x     4  =      64
superc: Number of atoms, orbitals, and projectors:    512   6656   8192

outcell: Unit cell vectors (Ang):
        5.688944    0.032870    0.032870
        0.032870    5.688944    0.032870
        0.032870    0.032870    5.688944

outcell: Cell vector modules (Ang)   :    5.689134    5.689134    5.689134
outcell: Cell angles (23,13,12) (deg):     89.3360     89.3360     89.3360
outcell: Cell volume (Ang**3)        :    184.0991
New_DM. Step:     6
Re-using DM from previous geometry...
Re-using DM without extrapolation (not allowed)
Density Matrix sparsity pattern changed.

siesta: E_KS(eV) =            -1029.6414

siesta: Atomic forces (eV/Ang):
----------------------------------------
   Tot    0.002062    0.002070    0.002069
----------------------------------------
   Max    1.916963
   Res    1.082449    sqrt( Sum f_i^2 / 3N )
----------------------------------------
   Max    1.916963    constrained

Stress-tensor-Voigt (kbar):       29.20       29.20       29.20       29.47       29.47       29.47
(Free)E + p*V (eV/cell)    -1032.8941
Target enthalpy (eV/cell)    -1029.6423

siesta: Stress tensor (static) (eV/Ang**3):
         0.018228    0.018393    0.018393
         0.018393    0.018228    0.018393
         0.018393    0.018393    0.018228

siesta: Pressure (static):        -29.20493241  kBar

siesta: Stress tensor (total) (eV/Ang**3):
         0.018228    0.018393    0.018393
         0.018393    0.018228    0.018393
         0.018393    0.018393    0.018228

siesta: Pressure (total):        -29.20493241  kBar

mulliken: Mulliken Atomic and Orbital Populations:

Species: Si                  
Atom  Qatom  Qorb
               3s      3s      3py     3pz     3px     3py     3pz     3px     
               3Pdxy   3Pdyz   3Pdz2   3Pdxz   3Pdx2-y2
   1  3.990   0.713   0.540   0.299   0.299   0.299   0.466   0.466   0.466
              0.106   0.106   0.061   0.106   0.061
   2  3.990   0.719   0.538   0.302   0.302   0.302   0.463   0.463   0.463
              0.106   0.106   0.060   0.106   0.060
   3  4.003   0.651   0.570   0.288   0.272   0.288   0.484   0.494   0.484
              0.110   0.113   0.068   0.113   0.067
   4  4.004   0.650   0.571   0.288   0.269   0.288   0.485   0.496   0.485
              0.110   0.113   0.069   0.113   0.067
   5  4.003   0.651   0.570   0.272   0.288   0.288   0.494   0.484   0.484
              0.113   0.113   0.067   0.110   0.068
   6  4.004   0.650   0.571   0.269   0.288   0.288   0.496   0.485   0.485
              0.113   0.113   0.067   0.110   0.068
   7  4.003   0.651   0.570   0.288   0.288   0.272   0.484   0.484   0.494
              0.113   0.110   0.067   0.113   0.068
   8  4.004   0.650   0.571   0.288   0.288   0.269   0.485   0.485   0.496
              0.113   0.110   0.067   0.113   0.068

mulliken: Qtot =       32.000

* Maximum dynamic memory allocated =    69 MB

siesta:                 ==============================
                            Begin CG move =      5
                        ==============================

outcoor: Atomic coordinates (Ang):                          
   -0.15940887   -0.15940876   -0.15940887   1       1  Si
    1.30271991    1.30272023    1.30271950   1       2  Si
    2.65715107    2.65715100   -0.17630221   1       3  Si
    4.12080345    4.12080343    1.39534409   1       4  Si
    2.65715075   -0.17630212    2.65715115   1       5  Si
    4.12080410    1.39534393    4.12080400   1       6  Si
   -0.17630180    2.65715086    2.65715133   1       7  Si
    1.39534371    4.12080363    4.12080366   1       8  Si
 Kpoints in:          108 . Kpoints trimmed:          108

siesta: k-grid: Number of k-points =   108
siesta: k-grid: Cutoff (effective) =    17.067 Ang
siesta: k-grid: Supercell and displacements
siesta: k-grid:    0   6   0      0.500
siesta: k-grid:    6   0   0      0.500
siesta: k-grid:    0   0   6      0.500
Naive supercell factors:     4    4    4

superc: Internal auxiliary supercell:     4 x     4 x     4  =      64
superc: Number of atoms, orbitals, and projectors:    512   6656   8192

outcell: Unit cell vectors (Ang):
        5.688944    0.032870    0.032870
        0.032870    5.688944    0.032870
        0.032870    0.032870    5.688944

outcell: Cell vector modules (Ang)   :    5.689134    5.689134    5.689134
outcell: Cell angles (23,13,12) (deg):     89.3360     89.3360     89.3360
outcell: Cell volume (Ang**3)        :    184.0991
New_DM. Step:     6
Re-using DM from previous geometry...
Re-using DM without extrapolation (not allowed)
Density Matrix sparsity pattern changed.

InitMesh: MESH =    36 x    36 x    36 =       46656
InitMesh: Mesh cutoff (required, used) =   100.000   110.695 Ry

InitMesh: MESH =    36 x    36 x    36 =       46656
InitMesh: Mesh cutoff (required, used) =   100.000   110.695 Ry

siesta: iscf   Eharris(eV)      E_KS(eV)   FreeEng(eV)   dDmax  Ef(eV)
siesta:    1    -1030.0241    -1028.9851    -1028.9860  0.0355 -4.7722

siesta: iscf   Eharris(eV)      E_KS(eV)   FreeEng(eV)   dDmax  Ef(eV)
siesta:    1    -1030.0241    -1028.9851    -1028.9860  0.0355 -4.7722
siesta:    2    -1030.3624    -1029.7190    -1029.7190  0.0870 -4.8835
siesta:    2    -1030.3624    -1029.7190    -1029.7190  0.0870 -4.8835
siesta:    3    -1029.9249    -1029.5227    -1029.5227  0.0206 -4.7951
siesta:    3    -1029.9249    -1029.5227    -1029.5227  0.0206 -4.7951
siesta:    4    -1029.9248    -1029.8733    -1029.8733  0.0017 -4.7974
siesta:    4    -1029.9248    -1029.8733    -1029.8733  0.0017 -4.7974
siesta:    5    -1029.9247    -1029.8946    -1029.8946  0.0008 -4.7969
siesta:    5    -1029.9247    -1029.8946    -1029.8946  0.0008 -4.7969

siesta: E_KS(eV) =            -1029.9125

siesta: Atomic forces (eV/Ang):
----------------------------------------
   Tot    0.007959    0.007958    0.007951
----------------------------------------
   Max    1.515372
   Res    0.735977    sqrt( Sum f_i^2 / 3N )
----------------------------------------
   Max    1.515372    constrained

Stress-tensor-Voigt (kbar):       56.45       56.45       56.45       17.47       17.47       17.47
(Free)E + p*V (eV/cell)    -1036.3989
Target enthalpy (eV/cell)    -1029.9126

siesta: Stress tensor (static) (eV/Ang**3):
         0.035233    0.010902    0.010902
         0.010902    0.035233    0.010902
         0.010902    0.010902    0.035233

siesta: Pressure (static):        -56.45012346  kBar

siesta: Stress tensor (total) (eV/Ang**3):
         0.035233    0.010902    0.010902
         0.010902    0.035233    0.010902
         0.010902    0.010902    0.035233

siesta: Pressure (total):        -56.45012346  kBar

mulliken: Mulliken Atomic and Orbital Populations:

Species: Si                  
Atom  Qatom  Qorb
               3s      3s      3py     3pz     3px     3py     3pz     3px     
               3Pdxy   3Pdyz   3Pdz2   3Pdxz   3Pdx2-y2
   1  4.011   0.801   0.497   0.352   0.352   0.352   0.419   0.419   0.419
              0.098   0.098   0.053   0.098   0.053
   2  3.994   0.681   0.555   0.297   0.297   0.297   0.472   0.472   0.472
              0.109   0.109   0.063   0.109   0.063
   3  3.999   0.673   0.559   0.310   0.275   0.310   0.464   0.487   0.464
              0.106   0.111   0.067   0.111   0.060
   4  3.999   0.711   0.540   0.309   0.315   0.309   0.461   0.455   0.461
              0.106   0.105   0.059   0.105   0.062
   5  3.999   0.673   0.559   0.275   0.310   0.310   0.487   0.464   0.464
              0.111   0.111   0.062   0.106   0.065
   6  3.999   0.711   0.540   0.315   0.309   0.309   0.455   0.461   0.461
              0.105   0.105   0.061   0.106   0.060
   7  3.999   0.673   0.559   0.310   0.310   0.275   0.464   0.464   0.487
              0.111   0.106   0.062   0.111   0.065
   8  3.999   0.711   0.540   0.309   0.309   0.315   0.461   0.461   0.455
              0.105   0.106   0.061   0.105   0.060

mulliken: Qtot =       32.000

cgvc: Finished line minimization    1.  Mean atomic displacement =    0.1798

* Maximum dynamic memory allocated =    71 MB

siesta:                 ==============================
                            Begin CG move =      6
                        ==============================

outcoor: Atomic coordinates (Ang):                          
   -0.17974041   -0.17974027   -0.17974021   1       1  Si
    1.22688541    1.22688563    1.22688533   1       2  Si
    2.62707328    2.62707330   -0.18189920   1       3  Si
    4.03725988    4.03725969    1.26522027   1       4  Si
    2.62707327   -0.18189855    2.62707287   1       5  Si
    4.03725979    1.26522009    4.03725998   1       6  Si
   -0.18189855    2.62707345    2.62707302   1       7  Si
    1.26522006    4.03725937    4.03725981   1       8  Si
 Kpoints in:          108 . Kpoints trimmed:          108

siesta: k-grid: Number of k-points =   108
siesta: k-grid: Cutoff (effective) =    16.692 Ang
siesta: k-grid: Supercell and displacements
siesta: k-grid:    0   6   0      0.500
siesta: k-grid:    6   0   0      0.500
siesta: k-grid:    0   0   6      0.500
Naive supercell factors:     5    5    5

superc: Internal auxiliary supercell:     5 x     5 x     5  =     125
superc: Number of atoms, orbitals, and projectors:   1000  13000  16000

outcell: Unit cell vectors (Ang):
        5.564058    0.012240    0.012240
        0.012240    5.564058    0.012240
        0.012240    0.012240    5.564059

outcell: Cell vector modules (Ang)   :    5.564085    5.564085    5.564085
outcell: Cell angles (23,13,12) (deg):     89.7476     89.7476     89.7476
outcell: Cell volume (Ang**3)        :    172.2538

siesta: E_KS(eV) =            -1029.9125

siesta: Atomic forces (eV/Ang):
----------------------------------------
   Tot    0.007959    0.007958    0.007951
----------------------------------------
   Max    1.515372
   Res    0.735977    sqrt( Sum f_i^2 / 3N )
[...]
         10.58  11.01  11.11  11.35  11.45  11.78  12.11  12.40  13.03  13.32
         14.04  14.21  14.48  14.51  14.69  15.53  15.87  16.16  16.39  17.04
         17.65  17.76  18.63  18.81  19.43  20.63  21.72  22.27  22.67  23.12
         23.28  23.61  24.58  24.96  26.11  26.35  31.61  36.09  37.49  39.56
         41.42  50.09  52.01  53.52  55.25  64.15  64.43  64.47  66.78  70.85
         76.12  86.77  94.01  95.30
  93  1 -16.06 -15.41 -14.29 -13.95 -12.12 -11.75 -10.34  -9.48  -9.35  -9.18
         -8.18  -7.94  -7.75  -7.50  -7.26  -6.37  -3.21  -3.17  -2.76  -2.10
         -2.00  -1.60  -1.59  -0.84  -0.84  -0.63  -0.37  -0.28   0.61   0.68
          1.26   2.04   2.08   2.08   2.72   3.55   4.03   4.04   4.67   5.69
          5.81   5.85   7.71   7.85   8.34   8.48   9.03   9.40   9.50  10.24
         10.58  11.01  11.11  11.35  11.46  11.78  12.11  12.40  13.03  13.32
         14.04  14.21  14.48  14.51  14.69  15.52  15.87  16.16  16.39  17.04
         17.64  17.76  18.63  18.81  19.43  20.63  21.72  22.27  22.67  23.12
         23.28  23.61  24.58  24.96  26.11  26.35  31.60  36.09  37.48  39.57
         41.41  50.10  52.02  53.53  55.25  64.15  64.42  64.47  66.77  70.85
         76.10  86.77  94.00  95.30
  94  1 -15.86 -15.24 -14.36 -14.36 -12.01 -12.01 -10.99 -10.20  -8.77  -8.77
         -7.79  -7.48  -7.48  -7.19  -6.69  -6.67  -3.32  -3.19  -2.96  -2.96
         -2.08  -1.43  -1.43  -1.28  -1.21  -0.47  -0.25   0.48   0.48   0.69
          0.93   0.93   2.91   2.91   3.29   3.41   5.00   5.11   5.16   5.48
          5.50   5.50   6.50   6.50   7.30   8.32   8.93   9.16   9.17   9.21
          9.48   9.48  11.10  11.42  11.42  11.82  13.14  13.36  13.50  13.51
         13.56  14.59  15.00  15.01  16.08  16.08  16.33  16.46  17.20  17.37
         17.37  17.92  17.93  19.13  19.24  19.24  20.73  21.88  21.99  23.66
         24.46  24.46  25.13  27.03  27.55  27.55  31.83  32.74  35.23  35.23
         41.07  48.89  54.50  54.51  57.64  59.58  63.53  65.50  65.50  68.22
         83.97  87.93  87.93  94.15
  95  1 -15.47 -14.94 -14.94 -14.59 -12.03 -11.64 -11.64 -11.01  -8.32  -7.91
         -7.91  -7.22  -6.96  -6.93  -6.92  -6.39  -3.32  -3.19  -2.86  -2.86
         -2.08  -2.08  -1.77  -1.72  -1.31  -0.94  -0.82  -0.82   1.44   1.44
          2.19   2.41   2.60   3.23   3.59   4.05   4.05   4.42   4.42   4.77
          5.22   7.04   7.04   7.18   7.18   7.82   8.12   8.64   8.93   8.94
          8.98   9.33   9.36  10.09  10.54  10.54  13.85  14.09  14.09  15.06
         15.07  15.12  15.47  15.63  15.78  15.99  16.43  16.43  17.59  18.35
         18.35  18.39  18.92  18.92  19.36  19.66  20.46  20.46  21.09  21.53
         26.84  26.95  26.96  28.36  28.62  32.16  32.16  34.22  38.72  39.66
         39.66  45.83  54.78  54.80  58.42  59.11  60.77  73.12  73.12  78.35
         84.32  84.34  84.87 104.89
  96  1 -15.47 -14.94 -14.94 -14.59 -12.03 -11.64 -11.64 -11.01  -8.32  -7.91
         -7.91  -7.22  -6.96  -6.93  -6.92  -6.39  -3.31  -3.18  -2.86  -2.86
         -2.08  -2.08  -1.77  -1.72  -1.31  -0.94  -0.82  -0.82   1.44   1.44
          2.19   2.41   2.59   3.24   3.60   4.05   4.05   4.42   4.43   4.77
          5.22   7.04   7.05   7.18   7.18   7.82   8.12   8.64   8.93   8.94
          8.98   9.33   9.36  10.09  10.54  10.54  13.84  14.09  14.09  15.06
         15.07  15.12  15.47  15.63  15.78  15.99  16.43  16.43  17.59  18.35
         18.36  18.39  18.92  18.93  19.36  19.66  20.46  20.46  21.10  21.53
         26.84  26.95  26.96  28.36  28.62  32.16  32.16  34.22  38.72  39.65
         39.67  45.84  54.76  54.80  58.43  59.11  60.79  73.12  73.13  78.35
         84.33  84.34  84.87 104.97
  97  1 -15.47 -14.94 -14.94 -14.59 -12.03 -11.64 -11.64 -11.01  -8.32  -7.91
         -7.91  -7.22  -6.96  -6.92  -6.92  -6.39  -3.31  -3.19  -2.86  -2.86
         -2.08  -2.08  -1.77  -1.72  -1.31  -0.94  -0.82  -0.82   1.44   1.44
          2.19   2.41   2.60   3.24   3.60   4.05   4.05   4.42   4.42   4.77
          5.22   7.04   7.05   7.18   7.18   7.82   8.12   8.64   8.94   8.94
          8.98   9.32   9.36  10.09  10.54  10.54  13.84  14.09  14.09  15.06
         15.07  15.12  15.47  15.63  15.78  15.99  16.43  16.43  17.59  18.35
         18.35  18.40  18.92  18.92  19.36  19.66  20.46  20.46  21.10  21.53
         26.84  26.96  26.96  28.36  28.61  32.16  32.16  34.22  38.72  39.66
         39.67  45.83  54.79  54.81  58.42  59.11  60.78  73.13  73.13  78.36
         84.34  84.35  84.87 104.93
  98  1 -15.64 -15.04 -15.04 -14.53 -11.63 -11.01 -11.01 -10.22  -9.28  -8.80
         -8.80  -8.21  -7.08  -7.01  -7.01  -6.32  -3.30  -2.68  -2.43  -2.42
         -1.74  -1.73  -1.40  -1.17  -0.11  -0.11  -0.09   0.08   0.44   0.44
          0.71   1.24   1.73   2.15   2.47   2.74   2.74   4.25   4.25   5.37
          5.76   7.64   7.64   8.17   8.73   8.73   9.37   9.68   9.90  10.01
         10.01  10.69  11.09  11.71  11.72  12.02  12.72  12.87  12.87  12.88
         13.47  13.76  13.76  14.40  14.89  15.12  15.12  15.53  17.39  18.16
         18.16  19.20  19.80  19.93  19.93  20.40  21.50  21.50  21.75  22.31
         25.58  25.58  25.97  25.97  27.60  35.96  35.96  40.34  42.66  42.66
         48.73  52.02  52.02  53.13  57.94  59.53  60.66  68.69  68.71  78.54
         79.03  81.20  81.20  97.28
  99  1 -15.64 -15.04 -15.04 -14.53 -11.63 -11.01 -11.01 -10.22  -9.28  -8.80
         -8.80  -8.21  -7.08  -7.02  -7.01  -6.32  -3.30  -2.69  -2.43  -2.43
         -1.74  -1.74  -1.40  -1.17  -0.10  -0.10  -0.09   0.08   0.44   0.44
          0.71   1.24   1.73   2.15   2.48   2.73   2.74   4.25   4.25   5.36
          5.76   7.64   7.64   8.17   8.73   8.73   9.37   9.68   9.90  10.01
         10.01  10.69  11.09  11.72  11.72  12.03  12.72  12.87  12.87  12.89
         13.47  13.76  13.76  14.40  14.89  15.12  15.12  15.53  17.39  18.16
         18.16  19.20  19.80  19.93  19.93  20.40  21.50  21.50  21.75  22.31
         25.58  25.58  25.97  25.97  27.60  35.96  35.96  40.34  42.65  42.65
         48.73  52.03  52.03  53.12  57.94  59.53  60.67  68.67  68.68  78.54
         79.03  81.19  81.20  97.29
 100  1 -15.47 -14.94 -14.94 -14.59 -12.03 -11.64 -11.64 -11.01  -8.32  -7.91
         -7.91  -7.22  -6.96  -6.93  -6.92  -6.39  -3.32  -3.19  -2.86  -2.86
         -2.08  -2.08  -1.77  -1.72  -1.31  -0.94  -0.82  -0.82   1.44   1.44
          2.19   2.41   2.60   3.23   3.59   4.05   4.05   4.42   4.42   4.77
          5.22   7.04   7.04   7.18   7.18   7.82   8.12   8.64   8.93   8.94
          8.98   9.33   9.36  10.09  10.54  10.54  13.85  14.09  14.09  15.06
         15.07  15.12  15.47  15.63  15.78  15.99  16.43  16.43  17.59  18.35
         18.35  18.39  18.92  18.92  19.36  19.66  20.46  20.46  21.09  21.53
         26.84  26.95  26.96  28.36  28.62  32.16  32.16  34.22  38.72  39.66
         39.66  45.83  54.78  54.80  58.42  59.11  60.77  73.12  73.12  78.35
         84.32  84.34  84.87 104.89
 101  1 -15.16 -14.82 -14.82 -14.82 -12.11 -12.11 -12.11 -11.72  -7.16  -7.16
         -7.16  -6.76  -6.76  -6.76  -6.54  -6.54  -3.94  -3.46  -3.46  -3.46
         -2.01  -2.01  -2.01  -1.90  -1.90  -1.61  -1.61  -1.61   2.94   2.94
          2.94   3.38   4.15   4.15   4.29   4.29   4.29   5.28   5.45   5.45
          5.45   6.24   6.24   6.24   6.32   6.32   6.32   7.74   7.74   8.02
          8.02   8.03   8.73   8.73   8.73   8.84  15.87  15.94  15.94  15.94
         16.42  16.42  16.62  16.63  16.63  17.24  17.24  17.24  18.00  18.00
         18.01  18.97  18.97  18.97  19.40  19.40  19.40  19.95  19.95  21.10
         27.95  27.95  27.95  29.29  29.29  29.63  29.63  29.63  49.05  49.06
         49.06  53.81  62.73  62.73  62.78  67.15  67.17  67.17  77.90  77.90
         92.34  92.34  92.35  98.37
 102  1 -15.16 -14.82 -14.82 -14.82 -12.11 -12.11 -12.10 -11.72  -7.17  -7.16
         -7.16  -6.76  -6.76  -6.76  -6.54  -6.54  -3.94  -3.46  -3.46  -3.46
         -2.01  -2.01  -2.01  -1.90  -1.90  -1.61  -1.61  -1.61   2.93   2.93
          2.94   3.39   4.15   4.15   4.29   4.29   4.29   5.27   5.45   5.46
          5.46   6.24   6.24   6.25   6.32   6.32   6.32   7.74   7.74   8.02
          8.02   8.02   8.73   8.73   8.73   8.84  15.87  15.94  15.94  15.94
         16.42  16.42  16.62  16.62  16.63  17.24  17.24  17.25  18.00  18.01
         18.01  18.97  18.97  18.97  19.40  19.40  19.41  19.95  19.95  21.10
         27.95  27.96  27.96  29.29  29.30  29.62  29.63  29.63  49.04  49.06
         49.06  53.82  62.71  62.77  62.77  67.14  67.15  67.17  77.94  77.97
         92.32  92.37  92.37  98.40
 103  1 -15.47 -14.94 -14.94 -14.59 -12.03 -11.64 -11.64 -11.01  -8.32  -7.91
         -7.91  -7.22  -6.96  -6.93  -6.92  -6.39  -3.31  -3.18  -2.86  -2.86
         -2.08  -2.08  -1.77  -1.72  -1.31  -0.94  -0.82  -0.82   1.44   1.44
          2.19   2.41   2.59   3.24   3.60   4.05   4.05   4.42   4.43   4.77
          5.22   7.04   7.05   7.18   7.18   7.82   8.12   8.64   8.93   8.94
          8.98   9.33   9.36  10.09  10.54  10.54  13.84  14.09  14.09  15.06
         15.07  15.12  15.47  15.63  15.78  15.99  16.43  16.43  17.59  18.35
         18.36  18.39  18.92  18.93  19.36  19.66  20.46  20.46  21.10  21.53
         26.84  26.95  26.96  28.36  28.62  32.16  32.16  34.22  38.72  39.65
         39.67  45.84  54.76  54.80  58.43  59.11  60.79  73.12  73.13  78.35
         84.33  84.34  84.87 104.97
 104  1 -15.64 -15.04 -15.04 -14.53 -11.63 -11.01 -11.01 -10.22  -9.28  -8.80
         -8.80  -8.21  -7.08  -7.02  -7.01  -6.32  -3.30  -2.68  -2.43  -2.43
         -1.74  -1.74  -1.40  -1.17  -0.11  -0.10  -0.09   0.08   0.44   0.44
          0.71   1.24   1.73   2.15   2.47   2.73   2.74   4.25   4.25   5.36
          5.76   7.65   7.65   8.18   8.73   8.73   9.37   9.68   9.90  10.01
         10.01  10.69  11.09  11.72  11.72  12.02  12.72  12.87  12.87  12.88
         13.47  13.76  13.77  14.40  14.89  15.12  15.12  15.53  17.39  18.16
         18.16  19.20  19.80  19.93  19.93  20.40  21.50  21.50  21.75  22.31
         25.58  25.58  25.97  25.97  27.60  35.96  35.96  40.34  42.64  42.66
         48.75  52.01  52.02  53.12  57.96  59.53  60.66  68.68  68.71  78.55
         79.03  81.18  81.21  97.28
 105  1 -15.64 -15.04 -15.04 -14.53 -11.63 -11.01 -11.01 -10.22  -9.28  -8.80
         -8.80  -8.21  -7.08  -7.02  -7.01  -6.32  -3.30  -2.68  -2.43  -2.43
         -1.74  -1.74  -1.40  -1.17  -0.11  -0.10  -0.09   0.08   0.44   0.44
          0.71   1.24   1.73   2.15   2.47   2.73   2.74   4.25   4.25   5.36
          5.76   7.65   7.65   8.18   8.73   8.73   9.37   9.68   9.90  10.01
         10.01  10.69  11.09  11.72  11.72  12.02  12.72  12.87  12.87  12.88
         13.47  13.76  13.77  14.40  14.89  15.12  15.12  15.53  17.39  18.16
         18.16  19.20  19.80  19.93  19.93  20.40  21.50  21.50  21.75  22.31
         25.58  25.58  25.97  25.97  27.60  35.96  35.96  40.34  42.64  42.66
         48.75  52.01  52.02  53.12  57.96  59.53  60.66  68.68  68.71  78.55
         79.03  81.18  81.21  97.28
 106  1 -15.47 -14.94 -14.94 -14.59 -12.03 -11.64 -11.64 -11.01  -8.32  -7.91
         -7.91  -7.22  -6.96  -6.93  -6.92  -6.39  -3.31  -3.18  -2.86  -2.86
         -2.08  -2.08  -1.77  -1.72  -1.31  -0.94  -0.82  -0.82   1.44   1.44
          2.19   2.41   2.59   3.24   3.60   4.05   4.05   4.42   4.43   4.77
          5.22   7.04   7.05   7.18   7.18   7.82   8.12   8.64   8.93   8.94
          8.98   9.33   9.36  10.09  10.54  10.54  13.84  14.09  14.09  15.06
         15.07  15.12  15.47  15.63  15.78  15.99  16.43  16.43  17.59  18.35
         18.36  18.39  18.92  18.93  19.36  19.66  20.46  20.46  21.10  21.53
         26.84  26.95  26.96  28.36  28.62  32.16  32.16  34.22  38.72  39.65
         39.67  45.84  54.76  54.80  58.43  59.11  60.79  73.12  73.13  78.35
         84.33  84.34  84.87 104.97
 107  1 -15.16 -14.82 -14.82 -14.82 -12.11 -12.11 -12.10 -11.72  -7.17  -7.16
         -7.16  -6.76  -6.76  -6.76  -6.54  -6.54  -3.94  -3.46  -3.46  -3.46
         -2.01  -2.01  -2.01  -1.90  -1.90  -1.61  -1.61  -1.61   2.93   2.93
          2.94   3.39   4.15   4.15   4.29   4.29   4.29   5.27   5.45   5.46
          5.46   6.24   6.24   6.25   6.32   6.32   6.32   7.74   7.74   8.02
          8.02   8.02   8.73   8.73   8.73   8.84  15.87  15.94  15.94  15.94
         16.42  16.42  16.62  16.62  16.63  17.24  17.24  17.25  18.00  18.01
         18.01  18.97  18.97  18.97  19.40  19.40  19.41  19.95  19.95  21.10
         27.95  27.96  27.96  29.29  29.30  29.62  29.63  29.63  49.04  49.06
         49.06  53.82  62.71  62.77  62.77  67.14  67.15  67.17  77.94  77.97
         92.32  92.37  92.37  98.40
 108  1 -15.16 -14.82 -14.82 -14.82 -12.11 -12.11 -12.10 -11.72  -7.17  -7.16
         -7.16  -6.76  -6.76  -6.76  -6.54  -6.54  -3.94  -3.46  -3.46  -3.46
         -2.01  -2.01  -2.01  -1.90  -1.90  -1.61  -1.61  -1.61   2.93   2.93
          2.94   3.39   4.15   4.15   4.29   4.29   4.29   5.27   5.45   5.46
          5.46   6.24   6.24   6.25   6.32   6.32   6.32   7.74   7.74   8.02
          8.02   8.02   8.73   8.73   8.73   8.84  15.87  15.94  15.94  15.94
         16.42  16.42  16.62  16.62  16.63  17.24  17.24  17.25  18.00  18.01
         18.01  18.97  18.97  18.97  19.40  19.40  19.41  19.95  19.95  21.10
         27.95  27.96  27.96  29.29  29.30  29.62  29.63  29.63  49.04  49.06
         49.06  53.82  62.71  62.77  62.77  67.14  67.15  67.17  77.94  77.97
         92.32  92.37  92.37  98.40
siesta: Fermi energy =      -4.994183 eV

siesta: Program's energy decomposition (eV):
siesta: Ebs     =      -331.598146
siesta: Eions   =      1510.441798
siesta: Ena     =       471.348574
siesta: Ekin    =       319.221733
siesta: Enl     =       127.087630
siesta: DEna    =         6.617019
siesta: DUscf   =         1.518645
siesta: DUext   =         0.000000
siesta: Exc     =      -446.026593
siesta: eta*DQ  =         0.000000
siesta: Emadel  =         0.000000
siesta: Emeta   =         0.000000
siesta: Emolmec =         0.000000
siesta: Ekinion =         0.000000
siesta: Eharris =     -1030.674639
siesta: Etot    =     -1030.674791
siesta: FreeEng =     -1030.674791

siesta: Final energy (eV):
siesta:  Band Struct. =    -331.598146
siesta:       Kinetic =     319.221733
siesta:       Hartree =      59.932956
siesta:    Ext. field =       0.000000
siesta:   Exch.-corr. =    -446.026593
siesta:  Ion-electron =    -421.870376
siesta:       Ion-ion =    -541.932512
siesta:       Ekinion =       0.000000
siesta:         Total =   -1030.674791

siesta: Stress tensor (static) (eV/Ang**3):
siesta:     0.000115    0.000035    0.000035
siesta:     0.000035    0.000115    0.000035
siesta:     0.000035    0.000035    0.000115

siesta: Constrained stress tensor (static) (eV/Ang**3):
siesta:     0.000115    0.000035    0.000035
siesta:     0.000035    0.000115    0.000035
siesta:     0.000035    0.000035    0.000115

siesta: Cell volume =        168.200517 Ang**3

siesta: Pressure (static):
siesta:                Solid            Molecule  Units
siesta:          -0.00000125         -0.00000528  Ry/Bohr**3
siesta:          -0.00011474         -0.00048437  eV/Ang**3
siesta:          -0.18383925         -0.77605667  kBar
(Free)E+ p_basis*V_orbitals  =       -1021.737061
(Free)Eharris+ p_basis*V_orbitals  =       -1021.737052

* Maximum dynamic memory allocated : Node    0 =    83 MB

* Maximum memory occured during init_pulay_arrrays            

timer: CPU execution times:
timer:  Routine       Calls   Time/call    Tot.time        %
timer:  siesta            1    1199.635    1199.635   100.00
timer:  Setup             1       0.132       0.132     0.01
timer:  bands             3       0.547       1.640     0.14
timer:  writewave         3       0.007       0.020     0.00
timer:  KSV_init          1       0.000       0.000     0.00
timer:  IterMD           15      79.848    1197.727    99.84
timer:  hsparse          15       0.146       2.192     0.18
timer:  overlap          15       0.114       1.708     0.14
timer:  IterSCF          81      12.343     999.754    83.34
timer:  kinefsm          30       0.113       3.392     0.28
timer:  nlefsm           30       3.090      92.698     7.73
timer:  DHSCF            96       6.972     669.266    55.79
timer:  DHSCF1           15       0.043       0.640     0.05
timer:  DHSCF2           15       1.880      28.206     2.35
timer:  REORD           606       0.000       0.040     0.00
timer:  POISON          111       0.005       0.532     0.04
timer:  DHSCF3           96       6.155     590.837    49.25
timer:  rhoofd           96       2.794     268.233    22.36
timer:  cellXC           96       0.121      11.580     0.97
timer:  vmat             96       3.234     310.432    25.88
timer:  MolMec           30       0.000       0.000     0.00
timer:  diagon           81       5.232     423.762    35.32
timer:  c-eigval       8849       0.015     128.980    10.75
timer:  c-buildHS      8849       0.010      88.893     7.41
timer:  cdiag         17598       0.007     122.350    10.20
timer:  cdiag1        17598       0.001       9.255     0.77
timer:  cdiag2        17598       0.002      31.872     2.66
timer:  cdiag3        17598       0.004      78.346     6.53
timer:  cdiag4        17598       0.000       2.388     0.20
timer:  c-eigvec       8749       0.019     169.971    14.17
timer:  c-buildD       8748       0.014     125.717    10.48
timer:  DHSCF4           15       3.303      49.539     4.13
timer:  dfscf            15       3.104      46.555     3.88
timer:  overfsm          15       0.107       1.608     0.13
timer:  optical           1       0.000       0.000     0.00
  

elaps: ELAPSED times:
elaps:  Routine       Calls   Time/call    Tot.time        %
elaps:  siesta            1    1205.924    1205.924   100.00
elaps:  Setup             1       0.135       0.135     0.01
elaps:  bands             3       0.550       1.649     0.14
elaps:  writewave         3       0.006       0.018     0.00
elaps:  KSV_init          1       0.000       0.000     0.00
elaps:  IterMD           15      80.267    1204.001    99.84
elaps:  hsparse          15       0.147       2.200     0.18
elaps:  overlap          15       0.114       1.711     0.14
elaps:  IterSCF          81      12.405    1004.819    83.32
elaps:  kinefsm          30       0.114       3.410     0.28
elaps:  nlefsm           30       3.106      93.170     7.73
elaps:  DHSCF            96       7.009     672.842    55.79
elaps:  DHSCF1           15       0.043       0.644     0.05
elaps:  DHSCF2           15       1.887      28.300     2.35
elaps:  REORD           606       0.000       0.052     0.00
elaps:  POISON          111       0.005       0.534     0.04
elaps:  DHSCF3           96       6.189     594.135    49.27
elaps:  rhoofd           96       2.806     269.366    22.34
elaps:  cellXC           96       0.121      11.614     0.96
elaps:  vmat             96       3.256     312.540    25.92
elaps:  MolMec           30       0.000       0.000     0.00
elaps:  diagon           81       5.258     425.904    35.32
elaps:  c-eigval       8849       0.015     129.636    10.75
elaps:  c-buildHS      8849       0.010      89.401     7.41
elaps:  cdiag         17598       0.007     122.797    10.18
elaps:  cdiag1        17598       0.001       8.986     0.75
elaps:  cdiag2        17598       0.002      32.087     2.66
elaps:  cdiag3        17598       0.004      78.887     6.54
elaps:  cdiag4        17598       0.000       2.394     0.20
elaps:  c-eigvec       8749       0.020     170.780    14.16
elaps:  c-buildD       8748       0.014     126.401    10.48
elaps:  DHSCF4           15       3.316      49.736     4.12
elaps:  dfscf            15       3.116      46.744     3.88
elaps:  overfsm          15       0.109       1.630     0.14
elaps:  optical           1       0.000       0.000     0.00
  
>> End of run:   9-MAY-2013  20:36:52
