Siesta Version:                                        siesta-3.2
Architecture  : x86_64-unknown-linux-gnu--Gfortran
Compiler flags: gfortran -g -O2
SERIAL version

* Running in serial mode
>> Start of run:  15-MAY-2013  18:31:41

                           ***********************       
                           *  WELCOME TO SIESTA  *       
                           ***********************       

reinit: Reading from standard input
************************** Dump of input data file ****************************
# FDF for silicon
SystemName             silicon          # Descriptive name of the system
SystemLabel            si          # Short name for naming files
NumberOfAtoms 8
NumberOfSpecies 1
%block ChemicalSpeciesLabel
1 14 Si								#
%endblock ChemicalSpeciesLabel
LatticeConstant  5.30 Ang			# experimental lattice constant of bulk Si: 5.43
									# Sebastian: für GGA: 5.30 Ang
									#			 für LDA: 5.15 Ang
##Basis set Defenition##
PAO.BasisType          split        # Type of PAO basis set
PAO.EnergyShift        50 meV
PAO.BasisSize          DZP          # (DZP) Double-z + polarization
%block LatticeVectors
0.500 0.500 0.000
0.500 0.000 0.500
0.000 0.500 0.500
%endblock LatticeVectors
AtomicCoordinatesFormat ScaledCartesian
%block AtomicCoordinatesAndAtomicSpecies
	0.00000000	0.00000000	0.00000000  1 Si  1
	1.36000000	1.36000000	1.36000000  1 Si  2
	2.72000000	2.72000000	0.00000000  1 Si  3
	4.08000000	4.08000000	1.36000000  1 Si  4
	2.72000000	0.00000000	2.72000000  1 Si  5
	4.08000000	1.36000000	4.08000000  1 Si  6
	0.00000000	2.72000000	2.72000000  1 Si  7
	1.36000000	4.08000000	4.08000000  1 Si  8
%endblock AtomicCoordinatesAndAtomicSpecies
MeshCutoff 40.0 Ry
kgrid_cutoff 30.0 Bohr
DM.Mixingweight  0.3
DM.NumberPulay    3
DM.Tolerance      1.d-3
DM.UseSaveDM      true
ElectronicTemperature 25 meV
SolutionMethod    diagon
XC.functional     GGA
XC.authors        PBE
SpinPolarized     false
MD.TypeOfRun           CG          # Type of dynamics:
MD.VariableCell        true
MD.NumCGsteps          200          # Number of CG steps for coordinate optimization
MD.MaxCGDispl          0.2 Bohr     # Maximum atomic displacement
                                    #   in one CG step (Bohr)
MD.MaxForceTol         0.04 eV/Ang  # Tolerance in the maximum
                                    #   atomic force (Ry/Bohr)
				
##Output Specification##
WriteMDhistory         true         # Trajectory information
WriteCoorStep          true
WriteCoorXmol          true
WriteMDXmol            true
WriteEigenvalues true
WriteKbands      true
WriteBands       true
WriteWaveFunctions true
WriteMullikenPoP   1
%block BandLines
1	1.000	1.000 1.000 L
25	0.000	0.000	0.000 \Gamma
30	2.000	0.000	0.000 X
10	2.000	0.500	0.500 U
35	0.000	0.000	0.000 \Gamma
%endblock BandLines
%block WaveFuncKPoints
0.0 0.0 0.0 from 1 to 50 # > 16 = 4/2*8 (Valenzelektronen/2, Atomzahl ...)
%endblock WaveFuncKpoints
************************** End of input data file *****************************

reinit: -----------------------------------------------------------------------
reinit: System Name: silicon
reinit: -----------------------------------------------------------------------
reinit: System Label: si                                                          
reinit: -----------------------------------------------------------------------

initatom: Reading input for the pseudopotentials and atomic orbitals ----------
 Species number:            1  Label: Si Atomic number:          14
Ground state valence configuration:   3s02  3p02
Reading pseudopotential information in formatted form from Si.psf

Valence configuration for pseudopotential generation:
3s( 2.00) rc: 1.75
3p( 2.00) rc: 1.94
3d( 0.00) rc: 2.09
4f( 0.00) rc: 2.09
For Si, standard SIESTA heuristics set lmxkb to 3
 (one more than the basis l, including polarization orbitals).
Use PS.lmax or PS.KBprojectors blocks to override.

<basis_specs>
===============================================================================
Si                   Z=  14    Mass=  28.090        Charge= 0.17977+309
Lmxo=1 Lmxkb= 3    BasisType=split      Semic=F
L=0  Nsemic=0  Cnfigmx=3
          n=1  nzeta=2  polorb=0
            splnorm:   0.15000    
               vcte:    0.0000    
               rinn:    0.0000    
                rcs:    0.0000      0.0000    
            lambdas:    1.0000      1.0000    
L=1  Nsemic=0  Cnfigmx=3
          n=1  nzeta=2  polorb=1
            splnorm:   0.15000    
               vcte:    0.0000    
               rinn:    0.0000    
                rcs:    0.0000      0.0000    
            lambdas:    1.0000      1.0000    
-------------------------------------------------------------------------------
L=0  Nkbl=1  erefs: 0.17977+309
L=1  Nkbl=1  erefs: 0.17977+309
L=2  Nkbl=1  erefs: 0.17977+309
L=3  Nkbl=1  erefs: 0.17977+309
===============================================================================
</basis_specs>

atom: Called for Si                    (Z =  14)

read_vps: Pseudopotential generation method:
read_vps: ATM3      Troullier-Martins                       
Total valence charge:    4.00000

read_vps: Pseudopotential includes a core correction:
read_vps: Pseudo-core for xc-correction

xc_check: Exchange-correlation functional:
xc_check: GGA Perdew, Burke & Ernzerhof 1996
V l=0 = -2*Zval/r beyond r=  2.0104
V l=1 = -2*Zval/r beyond r=  2.0873
V l=2 = -2*Zval/r beyond r=  2.1670
V l=3 = -2*Zval/r beyond r=  2.1670
All V_l potentials equal beyond r=  2.0613
This should be close to max(r_c) in ps generation
All pots = -2*Zval/r beyond r=  2.1670

VLOCAL1: 99.0% of the norm of Vloc inside     10.216 Ry
VLOCAL1: 99.9% of the norm of Vloc inside     23.282 Ry
atom: Maximum radius for 4*pi*r*r*local-pseudopot. charge    2.45560
atom: Maximum radius for r*vlocal+2*Zval:    2.14012
GHOST: No ghost state for L =  0
GHOST: No ghost state for L =  1
GHOST: No ghost state for L =  2
GHOST: No ghost state for L =  3

KBgen: Kleinman-Bylander projectors: 
   l= 0   rc=  2.306811   el= -0.791441   Ekb=  5.289775   kbcos=  0.291595
   l= 1   rc=  2.394965   el= -0.300632   Ekb=  1.944256   kbcos=  0.287657
   l= 2   rc=  2.549439   el=  0.001958   Ekb= -1.788485   kbcos= -0.056492
   l= 3   rc=  2.782581   el=  0.003046   Ekb= -0.472620   kbcos= -0.006203

KBgen: Total number of  Kleinman-Bylander projectors:   16
atom: -------------------------------------------------------------------------

atom: SANKEY-TYPE ORBITALS:
atom: Selected multiple-zeta basis: split     

SPLIT: Orbitals with angular momentum L= 0

SPLIT: Basis orbitals for state 3s

SPLIT: PAO cut-off radius determined from an
SPLIT: energy shift=  0.003675 Ry

   izeta = 1
                 lambda =    1.000000
                     rc =    6.116033
                 energy =   -0.788343
                kinetic =    0.528041
    potential(screened) =   -1.316383
       potential(ionic) =   -3.704743

   izeta = 2
                 rmatch =    4.530823
              splitnorm =    0.150000
                 energy =   -0.692892
                kinetic =    0.848665
    potential(screened) =   -1.541557
       potential(ionic) =   -4.044985

SPLIT: Orbitals with angular momentum L= 1

SPLIT: Basis orbitals for state 3p

SPLIT: PAO cut-off radius determined from an
SPLIT: energy shift=  0.003675 Ry

   izeta = 1
                 lambda =    1.000000
                     rc =    7.853192
                 energy =   -0.297152
                kinetic =    0.797948
    potential(screened) =   -1.095101
       potential(ionic) =   -3.275753

   izeta = 2
                 rmatch =    5.330310
              splitnorm =    0.150000
                 energy =   -0.228170
                kinetic =    1.148579
    potential(screened) =   -1.376749
       potential(ionic) =   -3.739005

POLgen: Perturbative polarization orbital with L=  2

POLgen: Polarization orbital for state 3p

   izeta = 1
                     rc =    7.853192
                 energy =    0.340222
                kinetic =    1.096718
    potential(screened) =   -0.756496
       potential(ionic) =   -2.716423
atom: Total number of Sankey-type orbitals: 13

atm_pop: Valence configuration (for local Pseudopot. screening):
 3s( 2.00)                                                            
 3p( 2.00)                                                            
Vna: chval, zval:    4.00000   4.00000

Vna:  Cut-off radius for the neutral-atom potential:   7.853192
comcore: Pseudo-core radius Rcore=  2.999314

atom: _________________________________________________________________________

prinput: Basis input ----------------------------------------------------------

PAO.BasisType split     

%block ChemicalSpeciesLabel
    1   14 Si                      # Species index, atomic number, species label
%endblock ChemicalSpeciesLabel

%block PAO.Basis                 # Define Basis set
Si                    2                    # Species label, number of l-shells
 n=3   0   2                         # n, l, Nzeta 
   6.116      4.531   
   1.000      1.000   
 n=3   1   2 P   1                   # n, l, Nzeta, Polarization, NzetaPol
   7.853      5.330   
   1.000      1.000   
%endblock PAO.Basis

prinput: ----------------------------------------------------------------------

coor:   Atomic-coordinates input format  =     Cartesian coordinates
coor:                                          (in units of alat)

siesta: Atomic coordinates (Bohr) and species
siesta:      0.00000   0.00000   0.00000  1        1
siesta:     13.62115  13.62115  13.62115  1        2
siesta:     27.24230  27.24230   0.00000  1        3
siesta:     40.86345  40.86345  13.62115  1        4
siesta:     27.24230   0.00000  27.24230  1        5
siesta:     40.86345  13.62115  40.86345  1        6
siesta:      0.00000  27.24230  27.24230  1        7
siesta:     13.62115  40.86345  40.86345  1        8

siesta: System type = bulk      

initatomlists: Number of atoms, orbitals, and projectors:      8   104   128

siesta: ******************** Simulation parameters ****************************
siesta:
siesta: The following are some of the parameters of the simulation.
siesta: A complete list of the parameters used, including default values,
siesta: can be found in file out.fdf
siesta:
redata: Non-Collinear-spin run           =     F
redata: SpinPolarized (Up/Down) run      =     F
redata: Number of spin components        =     1
redata: Long output                      =     F
redata: Number of Atomic Species         =        1
redata: Charge density info will appear in .RHO file
redata: Write Mulliken Pop.              =     Atomic and Orbital charges
redata: Mesh Cutoff                      =    40.0000  Ry
redata: Net charge of the system         =     0.0000 |e|
redata: Max. number of SCF Iter          =       50
redata: Performing Pulay mixing using    =     3 iterations
redata: Mix DM in first SCF step ?       =     F
redata: Write Pulay info on disk?        =     F
redata: Discard 1st Pulay DM after  kick =     F
redata: New DM Mixing Weight             =     0.3000
redata: New DM Occupancy tolerance       = 0.000000000001
redata: No kicks to SCF
redata: DM Mixing Weight for Kicks       =     0.5000
redata: DM Tolerance for SCF             =     0.001000
redata: Require Energy convergence for SCF =     F
redata: DM Energy tolerance for SCF      =     0.000100 eV
redata: Require Harris convergence for SCF =     F
redata: DM Harris energy tolerance for SCF =     0.000100 eV
redata: Using Saved Data (generic)   =     F
redata: Use continuation files for DM    =     T
redata: Neglect nonoverlap interactions  =     F
redata: Method of Calculation            =     Diagonalization
redata: Divide and Conquer               =     T
redata: Electronic Temperature           =     0.0018  Ry
redata: Fix the spin of the system       =     F
redata: Dynamics option                  =     CG coord. optimization
redata: Variable cell                    =     T
redata: Use continuation files for CG    =     F
redata: Max atomic displ per move        =     0.2000  Bohr
redata: Maximum number of CG moves       =      200
redata: Force tolerance                  =     0.0016  Ry/Bohr
redata: Stress tolerance                 =     1.0000  GPa
redata: ***********************************************************************
Total number of electrons:    32.000000
Total ionic charge:    32.000000
 Kpoints in:          405 . Kpoints trimmed:          365

siesta: k-grid: Number of k-points =   365
siesta: k-grid: Cutoff (effective) =    16.864 Ang
siesta: k-grid: Supercell and displacements
siesta: k-grid:    0   9   0      0.000
siesta: k-grid:    0   0   9      0.000
siesta: k-grid:    9   0   0      0.000
Naive supercell factors:     7    7    7

superc: Internal auxiliary supercell:     7 x     7 x     7  =     343
superc: Number of atoms, orbitals, and projectors:   2744  35672  43904

* Maximum dynamic memory allocated =     3 MB

siesta:                 ==============================
                            Begin CG move =      0
                        ==============================

outcoor: Atomic coordinates (scaled):                       
    0.00000000    0.00000000    0.00000000   1       1  Si
    1.36000000    1.36000000    1.36000000   1       2  Si
    2.72000000    2.72000000    0.00000000   1       3  Si
    4.08000000    4.08000000    1.36000000   1       4  Si
    2.72000000    0.00000000    2.72000000   1       5  Si
    4.08000000    1.36000000    4.08000000   1       6  Si
    0.00000000    2.72000000    2.72000000   1       7  Si
    1.36000000    4.08000000    4.08000000   1       8  Si

superc: Internal auxiliary supercell:     7 x     7 x     7  =     343
superc: Number of atoms, orbitals, and projectors:   2744  35672  43904

outcell: Unit cell vectors (Ang):
        2.650000    2.650000    0.000000
        2.650000    0.000000    2.650000
        0.000000    2.650000    2.650000

outcell: Cell vector modules (Ang)   :    3.747666    3.747666    3.747666
outcell: Cell angles (23,13,12) (deg):     60.0000     60.0000     60.0000
outcell: Cell volume (Ang**3)        :     37.2193
New_DM. Step:     1
Initializing Density Matrix...

iodm: Reading Density Matrix from files
 Read DM has different structure. Fixing...

InitMesh: MESH =    12 x    12 x    12 =        1728
InitMesh: Mesh cutoff (required, used) =    40.000    42.504 Ry

* Maximum dynamic memory allocated =   164 MB

stepf: Fermi-Dirac step function

siesta: Program's energy decomposition (eV):
siesta: Ebs     =      -928.822142
siesta: Eions   =      1510.441798
siesta: Ena     =       360.280645
siesta: Ekin    =       401.571690
siesta: Enl     =       485.718161
siesta: DEna    =       -13.577926
siesta: DUscf   =         0.628022
siesta: DUext   =         0.000000
siesta: Exc     =      -599.186640
siesta: eta*DQ  =         0.000000
siesta: Emadel  =         0.000000
siesta: Emeta   =         0.000000
siesta: Emolmec =         0.000000
siesta: Ekinion =         0.000000
siesta: Eharris =      -718.723865
siesta: Etot    =      -875.007847
siesta: FreeEng =      -875.007847

siesta: iscf   Eharris(eV)      E_KS(eV)   FreeEng(eV)   dDmax  Ef(eV)
siesta:    1     -718.7239     -875.0078     -875.0078 13.5859-16.5493
timer: Routine,Calls,Time,% = IterSCF        1     134.854  98.63
elaps: Routine,Calls,Wall,% = IterSCF        1     135.045  98.48
siesta:    2     -722.3203     -685.3471     -685.3500  8.8987-14.4738
siesta:    3     -701.8787     -745.9382     -745.9425  2.0556-15.4218
siesta:    4     -701.4529     -738.4313     -738.4357  1.7821-15.4458
siesta:    5     -699.6117     -697.2375     -697.2417  0.2138-15.5040
siesta:    6     -699.5930     -697.1458     -697.1502  0.1744-15.4995
siesta:    7     -699.6471     -699.4219     -699.4263  0.0175-15.4944
siesta:    8     -699.6533     -699.6381     -699.6425  0.0052-15.4959
siesta:    9     -699.6532     -699.6993     -699.7037  0.0030-15.4963
siesta:   10     -699.6516     -699.6664     -699.6708  0.0017-15.4962
siesta:   11     -699.6498     -699.6468     -699.6512  0.0010-15.4963

siesta: E_KS(eV) =             -699.6400

siesta: E_KS - E_eggbox =      -699.6400

siesta: Atomic forces (eV/Ang):
----------------------------------------
   Tot    0.362365    0.362191    0.362049
----------------------------------------
   Max  138.861956
   Res   66.133220    sqrt( Sum f_i^2 / 3N )
----------------------------------------
   Max  138.861956    constrained

Stress-tensor-Voigt (kbar):   -19506.20   -19506.28   -19506.28     4991.73     4991.70     4991.70
(Free)E + p*V (eV/cell)     -246.5107
Target enthalpy (eV/cell)     -699.6444

siesta: Stress tensor (static) (eV/Ang**3):
       -12.174683    3.115568    3.115548
         3.115558  -12.174729    3.115537
         3.115539    3.115542  -12.174729

siesta: Pressure (static):      19506.25218791  kBar

siesta: Stress tensor (total) (eV/Ang**3):
       -12.174683    3.115568    3.115548
         3.115558  -12.174729    3.115537
         3.115539    3.115542  -12.174729

siesta: Pressure (total):      19506.25218791  kBar

mulliken: Mulliken Atomic and Orbital Populations:

Species: Si                  
Atom  Qatom  Qorb
               3s      3s      3py     3pz     3px     3py     3pz     3px     
               3Pdxy   3Pdyz   3Pdz2   3Pdxz   3Pdx2-y2
   1  2.943   0.001   1.025   0.085   0.085   0.085   0.012   0.012   0.012
              0.365   0.365   0.267   0.365   0.267
   2  2.271  -0.455   1.377   0.310   0.310   0.310  -0.323  -0.323  -0.323
              0.275   0.275   0.281   0.275   0.281
   3  4.019  -0.201   1.286   0.010   0.083   0.010  -0.149   0.347  -0.149
              0.297   0.598   0.483   0.598   0.808
   4  4.910   0.025   1.226   0.033   0.106   0.033   0.160   0.126   0.160
              0.672   0.417   0.749   0.417   0.786
   5  4.019  -0.201   1.286   0.083   0.010   0.010   0.347  -0.149  -0.149
              0.598   0.598   0.727   0.297   0.564
   6  4.910   0.025   1.226   0.106   0.033   0.033   0.126   0.160   0.160
              0.417   0.417   0.776   0.672   0.758
   7  4.019  -0.201   1.286   0.010   0.010   0.083  -0.149  -0.149   0.347
              0.598   0.297   0.727   0.598   0.564
   8  4.910   0.025   1.226   0.033   0.033   0.106   0.160   0.160   0.126
              0.417   0.672   0.776   0.417   0.758

mulliken: Qtot =       32.000

cgvc: No target stress found, assuming hydrostatic MD.TargetPressure.

cgvc: Target stress (kBar)
cgvc:        -0.000       0.000       0.000
cgvc:         0.000      -0.000       0.000
cgvc:         0.000       0.000      -0.000

* Maximum dynamic memory allocated =   169 MB

siesta:                 ==============================
                            Begin CG move =      1
                        ==============================

outcoor: Atomic coordinates (scaled):                       
   -0.00318610   -0.00318610   -0.00318612   1       1  Si
    1.36050807    1.36050811    1.36050812   1       2  Si
    2.73025086    2.73025093   -0.01326296   1       3  Si
    4.09859330    4.09859338    1.36358116   1       4  Si
    2.73025093   -0.01326292    2.73025100   1       5  Si
    4.09859334    1.36358111    4.09859342   1       6  Si
   -0.01326292    2.73025102    2.73025103   1       7  Si
    1.36358106    4.09859339    4.09859342   1       8  Si
 Kpoints in:          405 . Kpoints trimmed:          365

siesta: k-grid: Number of k-points =   365
siesta: k-grid: Cutoff (effective) =    16.936 Ang
siesta: k-grid: Supercell and displacements
siesta: k-grid:    9   0   0      0.000
siesta: k-grid:    0   9   0      0.000
siesta: k-grid:    0   0   9      0.000
Naive supercell factors:     6    6    6

superc: Internal auxiliary supercell:     6 x     6 x     6  =     216
superc: Number of atoms, orbitals, and projectors:   1728  22464  27648

outcell: Unit cell vectors (Ang):
        2.661208    2.661208   -0.007709
        2.661208   -0.007709    2.661208
       -0.007709    2.661208    2.661208

outcell: Cell vector modules (Ang)   :    3.763524    3.763524    3.763524
outcell: Cell angles (23,13,12) (deg):     60.1916     60.1916     60.1916
outcell: Cell volume (Ang**3)        :     37.8573
New_DM. Step:     2
DM reset as supercell changed.
Initializing Density Matrix...

InitMesh: MESH =    12 x    12 x    12 =        1728
InitMesh: Mesh cutoff (required, used) =    40.000    41.945 Ry

siesta: iscf   Eharris(eV)      E_KS(eV)   FreeEng(eV)   dDmax  Ef(eV)
siesta:    1     -751.5225     -977.9903     -977.9947 11.4565-16.2519
siesta:    2     -764.7507     -715.7200     -715.7231  9.2620-14.1395
siesta:    3     -735.2715     -803.1010     -803.1044  1.8300-15.1215
siesta:    4     -735.1713     -796.0164     -796.0209  1.6882-15.1393
