Siesta Version:                                        siesta-3.2
Architecture  : x86_64-unknown-linux-gnu--unknown
Compiler flags: f95 -g -O2
Siesta Version:                                        siesta-3.2
Architecture  : x86_64-unknown-linux-gnu--unknown
Compiler flags: f95 -g -O2
SERIAL version

* Running in serial mode
SERIAL version

* Running in serial mode
>> Start of run:   9-MAY-2013  18:54:26
>> Start of run:   9-MAY-2013  18:54:26

                           ***********************       

                           ***********************       
                           *  WELCOME TO SIESTA  *       
                           ***********************       
                           *  WELCOME TO SIESTA  *       
                           ***********************       

reinit: Reading from standard input

reinit: Reading from standard input
************************** Dump of input data file ****************************
************************** Dump of input data file ****************************
************************** End of input data file *****************************
# FDF for silicon
SystemName             silicon          # Descriptive name of the system
SystemLabel            si          # Short name for naming files
NumberOfAtoms 8
NumberOfSpecies 1
%block ChemicalSpeciesLabel
1 14 Si
%endblock ChemicalSpeciesLabel
LatticeConstant  5.90 Ang
##Basis set Definition##
PAO.BasisType          split        # Type of PAO basis set
PAO.EnergyShift        50 meV
PAO.BasisSize          DZP          # (DZP) Double-z + polarization
#%block LatticeVectors
#0.500 0.500 0.000
#0.500 0.000 0.500
#0.000 0.500 0.500
#%endblock LatticeVectors
AtomicCoordinatesFormat NotScaledCartesianAng
%block AtomicCoordinatesAndAtomicSpecies
	0.00000000	0.00000000	0.00000000  1 Si  1
	1.36000000	1.36000000	1.36000000  1 Si  2
	2.72000000	2.72000000	0.00000000  1 Si  3
	4.08000000	4.08000000	1.36000000  1 Si  4

reinit: -----------------------------------------------------------------------
	2.72000000	0.00000000	2.72000000  1 Si  5
	4.08000000	1.36000000	4.08000000  1 Si  6
	0.00000000	2.72000000	2.72000000  1 Si  7
reinit: System Name: 
	1.36000000	4.08000000	4.08000000  1 Si  8
%endblock AtomicCoordinatesAndAtomicSpecies
MeshCutoff 100.0 Ry # 100, 120, 180, 260
reinit: -----------------------------------------------------------------------
reinit: System Label: siesta                                                      
kgrid_cutoff 30.0 Bohr # 30, 35, 40, 45
DM.Mixingweight  0.3
DM.NumberPulay    3
DM.Tolerance      1.d-3
DM.UseSaveDM      true
reinit: -----------------------------------------------------------------------
ElectronicTemperature 25 meV
SolutionMethod    diagon
XC.functional     LDA	    # Local Density Approximation
XC.authors        CA           # Ceperley-Alder
SpinPolarized     false
MD.TypeOfRun           CG           # Type of dynamics:
MD.VariableCell        true
MD.NumCGsteps          100          # Number of CG steps for coordinate optimization
MD.MaxCGDispl          0.2 Bohr     # Maximum atomic displacement
                                    #   in one CG step (Bohr)
MD.MaxForceTol         0.04 eV/Ang  # Tolerance in the maximum
                                    #   atomic force (Ry/Bohr)
				
##Output Specification##
WriteMDhistory         true         # Trajectory information
WriteCoorStep          true
WriteCoorXmol          true
WriteMDXmol            true
WriteEigenvalues true
WriteKbands      true
WriteBands       true
WriteWaveFunctions true
WriteMullikenPoP   1
%block BandLines
1	1.000	1.000 1.000 L
25	0.000	0.000	0.000 \Gamma
30	2.000	0.000	0.000 X
10	2.000	0.500	0.500 U
35	0.000	0.000	0.000 \Gamma
%endblock BandLines
%block WaveFuncKPoints
0.0 0.0 0.0 from 1 to 50 # > 16 = 4/2*8 (Valenzelektronen/2, Atomzahl ...)
%endblock WaveFuncKpoints
************************** End of input data file *****************************

reinit: -----------------------------------------------------------------------
reinit: System Name: silicon
reinit: -----------------------------------------------------------------------
reinit: System Label: si                                                          
reinit: -----------------------------------------------------------------------

initatom: Reading input for the pseudopotentials and atomic orbitals ----------
 Species number:            1  Label: Si Atomic number:          14
Ground state valence configuration:   3s02  3p02
Reading pseudopotential information in formatted form from Si.psf

Valence configuration for pseudopotential generation:

initatom: Reading input for the pseudopotentials and atomic orbitals ----------
 Species number:            1  Label: Si Atomic number:          14
Ground state valence configuration:   3s02  3p02
Reading pseudopotential information in formatted form from Si.psf

Valence configuration for pseudopotential generation:
3s( 2.00) rc: 1.75
3p( 2.00) rc: 1.94
3d( 0.00) rc: 2.09
4f( 0.00) rc: 2.09
3s( 2.00) rc: 1.75
3p( 2.00) rc: 1.94
3d( 0.00) rc: 2.09
4f( 0.00) rc: 2.09
For Si, standard SIESTA heuristics set lmxkb to 3
 (one more than the basis l, including polarization orbitals).
Use PS.lmax or PS.KBprojectors blocks to override.

<basis_specs>
===============================================================================
Si                   Z=  14    Mass=  28.090        Charge= 0.17977+309
Lmxo=1 Lmxkb= 3    BasisType=split      Semic=F
L=0  Nsemic=0  Cnfigmx=3
          n=1  nzeta=2  polorb=0
            splnorm:   0.15000    
               vcte:    0.0000    
               rinn:    0.0000    
                rcs:    0.0000      0.0000    
            lambdas:    1.0000      1.0000    
L=1  Nsemic=0  Cnfigmx=3
          n=1  nzeta=2  polorb=1
            splnorm:   0.15000    
               vcte:    0.0000    
               rinn:    0.0000    
                rcs:    0.0000      0.0000    
            lambdas:    1.0000      1.0000    
-------------------------------------------------------------------------------
L=0  Nkbl=1  erefs: 0.17977+309
L=1  Nkbl=1  erefs: 0.17977+309
L=2  Nkbl=1  erefs: 0.17977+309
L=3  Nkbl=1  erefs: 0.17977+309
===============================================================================
</basis_specs>

atom: Called for Si                    (Z =  14)

read_vps: Pseudopotential generation method:
read_vps: ATM3      Troullier-Martins                       
Total valence charge:    4.00000
For Si, standard SIESTA heuristics set lmxkb to 3
 (one more than the basis l, including polarization orbitals).
Use PS.lmax or PS.KBprojectors blocks to override.

xc_check: Exchange-correlation functional:
xc_check: Ceperley-Alder

<basis_specs>
===============================================================================
Si                   Z=  14    Mass=  28.090        Charge= 0.17977+309
Lmxo=1 Lmxkb= 3    BasisType=split      Semic=F
L=0  Nsemic=0  Cnfigmx=3
          n=1  nzeta=2  polorb=0
            splnorm:   0.15000    
               vcte:    0.0000    
               rinn:    0.0000    
                rcs:    0.0000      0.0000    
            lambdas:    1.0000      1.0000    
L=1  Nsemic=0  Cnfigmx=3
          n=1  nzeta=2  polorb=1
            splnorm:   0.15000    
               vcte:    0.0000    
               rinn:    0.0000    
                rcs:    0.0000      0.0000    
            lambdas:    1.0000      1.0000    
-------------------------------------------------------------------------------
L=0  Nkbl=1  erefs: 0.17977+309
L=1  Nkbl=1  erefs: 0.17977+309
L=2  Nkbl=1  erefs: 0.17977+309
L=3  Nkbl=1  erefs: 0.17977+309
===============================================================================
</basis_specs>

atom: Called for Si                    (Z =  14)

read_vps: Pseudopotential generation method:
read_vps: ATM3      Troullier-Martins                       
Total valence charge:    4.00000

xc_check: Exchange-correlation functional:
xc_check: Ceperley-Alder
V l=0 = -2*Zval/r beyond r=  2.5494
V l=1 = -2*Zval/r beyond r=  2.5494
V l=2 = -2*Zval/r beyond r=  2.5494
V l=3 = -2*Zval/r beyond r=  2.5494
All V_l potentials equal beyond r=  2.0613
This should be close to max(r_c) in ps generation
All pots = -2*Zval/r beyond r=  2.5494

VLOCAL1: 99.0% of the norm of Vloc inside     10.216 Ry
VLOCAL1: 99.9% of the norm of Vloc inside     23.282 Ry
atom: Maximum radius for 4*pi*r*r*local-pseudopot. charge    2.45560
atom: Maximum radius for r*vlocal+2*Zval:    2.14012
V l=0 = -2*Zval/r beyond r=  2.5494
V l=1 = -2*Zval/r beyond r=  2.5494
V l=2 = -2*Zval/r beyond r=  2.5494
V l=3 = -2*Zval/r beyond r=  2.5494
All V_l potentials equal beyond r=  2.0613
This should be close to max(r_c) in ps generation
All pots = -2*Zval/r beyond r=  2.5494

VLOCAL1: 99.0% of the norm of Vloc inside     10.216 Ry
VLOCAL1: 99.9% of the norm of Vloc inside     23.282 Ry
atom: Maximum radius for 4*pi*r*r*local-pseudopot. charge    2.45560
GHOST: No ghost state for L =  0
atom: Maximum radius for r*vlocal+2*Zval:    2.14012
GHOST: No ghost state for L =  1
GHOST: No ghost state for L =  0
GHOST: No ghost state for L =  2
GHOST: No ghost state for L =  1
GHOST: No ghost state for L =  3

KBgen: Kleinman-Bylander projectors: 
   l= 0   rc=  2.782581   el= -0.796617   Ekb=  4.840502   kbcos=  0.288423
   l= 1   rc=  2.888916   el= -0.307040   Ekb=  1.512733   kbcos=  0.296968
   l= 2   rc=  2.962054   el=  0.002313   Ekb= -2.156507   kbcos= -0.061834
   l= 3   rc=  3.192765   el=  0.003402   Ekb= -0.600958   kbcos= -0.007408

KBgen: Total number of  Kleinman-Bylander projectors:   16
atom: -------------------------------------------------------------------------
GHOST: No ghost state for L =  2

atom: SANKEY-TYPE ORBITALS:
atom: Selected multiple-zeta basis: split     

SPLIT: Orbitals with angular momentum L= 0

SPLIT: Basis orbitals for state 3s

SPLIT: PAO cut-off radius determined from an
SPLIT: energy shift=  0.003675 Ry
GHOST: No ghost state for L =  3

KBgen: Kleinman-Bylander projectors: 
   l= 0   rc=  2.782581   el= -0.796617   Ekb=  4.840502   kbcos=  0.288423
   l= 1   rc=  2.888916   el= -0.307040   Ekb=  1.512733   kbcos=  0.296968
   l= 2   rc=  2.962054   el=  0.002313   Ekb= -2.156507   kbcos= -0.061834
   l= 3   rc=  3.192765   el=  0.003402   Ekb= -0.600958   kbcos= -0.007408

KBgen: Total number of  Kleinman-Bylander projectors:   16
atom: -------------------------------------------------------------------------

atom: SANKEY-TYPE ORBITALS:
atom: Selected multiple-zeta basis: split     

   izeta = 1
                 lambda =    1.000000
                     rc =    6.116033
                 energy =   -0.793486
                kinetic =    0.528761
    potential(screened) =   -1.322246

SPLIT: Orbitals with angular momentum L= 0

SPLIT: Basis orbitals for state 3s
       potential(ionic) =   -3.766038

SPLIT: PAO cut-off radius determined from an
SPLIT: energy shift=  0.003675 Ry

   izeta = 2
                 rmatch =    4.530823
              splitnorm =    0.150000
                 energy =   -0.697320
                kinetic =    0.853435
    potential(screened) =   -1.550756
       potential(ionic) =   -4.120809

   izeta = 1
                 lambda =    1.000000
                     rc =    6.116033
                 energy =   -0.793486
                kinetic =    0.528761
    potential(screened) =   -1.322246
       potential(ionic) =   -3.766038

SPLIT: Orbitals with angular momentum L= 1

SPLIT: Basis orbitals for state 3p

   izeta = 2
                 rmatch =    4.530823
              splitnorm =    0.150000
                 energy =   -0.697320
                kinetic =    0.853435
    potential(screened) =   -1.550756
       potential(ionic) =   -4.120809

SPLIT: PAO cut-off radius determined from an
SPLIT: energy shift=  0.003675 Ry

   izeta = 1
                 lambda =    1.000000
                     rc =    7.853192
                 energy =   -0.303674
                kinetic =    0.798475
    potential(screened) =   -1.102149
       potential(ionic) =   -3.307324

SPLIT: Orbitals with angular momentum L= 1

SPLIT: Basis orbitals for state 3p

SPLIT: PAO cut-off radius determined from an
SPLIT: energy shift=  0.003675 Ry

   izeta = 2
                 rmatch =    5.397360
              splitnorm =    0.150000
                 energy =   -0.229357
                kinetic =    1.170483
    potential(screened) =   -1.399841
       potential(ionic) =   -3.814095

   izeta = 1
                 lambda =    1.000000
                     rc =    7.853192
                 energy =   -0.303674
                kinetic =    0.798475
    potential(screened) =   -1.102149
       potential(ionic) =   -3.307324

   izeta = 2
                 rmatch =    5.397360
              splitnorm =    0.150000
                 energy =   -0.229357
                kinetic =    1.170483
    potential(screened) =   -1.399841
       potential(ionic) =   -3.814095

POLgen: Perturbative polarization orbital with L=  2

POLgen: Polarization orbital for state 3p

POLgen: Perturbative polarization orbital with L=  2

POLgen: Polarization orbital for state 3p

   izeta = 1
                     rc =    7.853192
                 energy =    0.331669
                kinetic =    1.088595
    potential(screened) =   -0.756926
       potential(ionic) =   -2.714870
atom: Total number of Sankey-type orbitals: 13

atm_pop: Valence configuration (for local Pseudopot. screening):
 3s( 2.00)                                                            
 3p( 2.00)                                                            
Vna: chval, zval:    4.00000   4.00000

Vna:  Cut-off radius for the neutral-atom potential:   7.853192

   izeta = 1
                     rc =    7.853192
                 energy =    0.331669
                kinetic =    1.088595
    potential(screened) =   -0.756926
       potential(ionic) =   -2.714870

atom: _________________________________________________________________________

prinput: Basis input ----------------------------------------------------------

PAO.BasisType split     

%block ChemicalSpeciesLabel
    1   14 Si                      # Species index, atomic number, species label
%endblock ChemicalSpeciesLabel

%block PAO.Basis                 # Define Basis set
Si                    2                    # Species label, number of l-shells
 n=3   0   2                         # n, l, Nzeta 
   6.116      4.531   
   1.000      1.000   
 n=3   1   2 P   1                   # n, l, Nzeta, Polarization, NzetaPol
   7.853      5.397   
   1.000      1.000   
%endblock PAO.Basis

prinput: ----------------------------------------------------------------------

atom: Total number of Sankey-type orbitals: 13

atm_pop: Valence configuration (for local Pseudopot. screening):
 3s( 2.00)                                                            
 3p( 2.00)                                                            
Vna: chval, zval:    4.00000   4.00000

Vna:  Cut-off radius for the neutral-atom potential:   7.853192

atom: _________________________________________________________________________

prinput: Basis input ----------------------------------------------------------

PAO.BasisType split     

%block ChemicalSpeciesLabel
    1   14 Si                      # Species index, atomic number, species label
%endblock ChemicalSpeciesLabel

%block PAO.Basis                 # Define Basis set
Si                    2                    # Species label, number of l-shells
 n=3   0   2                         # n, l, Nzeta 
   6.116      4.531   
   1.000      1.000   
 n=3   1   2 P   1                   # n, l, Nzeta, Polarization, NzetaPol
   7.853      5.397   
   1.000      1.000   
%endblock PAO.Basis

prinput: ----------------------------------------------------------------------

coor:   Atomic-coordinates input format  =     Cartesian coordinates
coor:                                          (in Angstroms)
coor:   Atomic-coordinates input format  =     Cartesian coordinates
coor:                                          (in Angstroms)

siesta: Atomic coordinates (Bohr) and species
siesta:      0.00000   0.00000   0.00000  1        1
siesta:      2.57003   2.57003   2.57003  1        2
siesta:      5.14006   5.14006   0.00000  1        3
siesta:      7.71009   7.71009   2.57003  1        4
siesta:      5.14006   0.00000   5.14006  1        5
siesta:      7.71009   2.57003   7.71009  1        6
siesta:      0.00000   5.14006   5.14006  1        7
siesta:      2.57003   7.71009   7.71009  1        8

siesta: System type = bulk      

initatomlists: Number of atoms, orbitals, and projectors:      8   104   128

siesta: ******************** Simulation parameters ****************************
siesta:
siesta: The following are some of the parameters of the simulation.
siesta: A complete list of the parameters used, including default values,
siesta: can be found in file out.fdf
siesta:

siesta: Atomic coordinates (Bohr) and species
siesta:      0.00000   0.00000   0.00000  1        1
siesta:      2.57003   2.57003   2.57003  1        2
siesta:      5.14006   5.14006   0.00000  1        3
siesta:      7.71009   7.71009   2.57003  1        4
siesta:      5.14006   0.00000   5.14006  1        5
siesta:      7.71009   2.57003   7.71009  1        6
siesta:      0.00000   5.14006   5.14006  1        7
siesta:      2.57003   7.71009   7.71009  1        8
redata: Non-Collinear-spin run           =     F
redata: SpinPolarized (Up/Down) run      =     F
redata: Number of spin components        =     1

siesta: System type = bulk      
redata: Long output                      =     F
redata: Number of Atomic Species         =        1
redata: Charge density info will appear in .RHO file
redata: Write Mulliken Pop.              =     Atomic and Orbital charges

initatomlists: Number of atoms, orbitals, and projectors:      8   104   128
redata: Mesh Cutoff                      =   100.0000  Ry
redata: Net charge of the system         =     0.0000 |e|

siesta: ******************** Simulation parameters ****************************
siesta:
siesta: The following are some of the parameters of the simulation.
siesta: A complete list of the parameters used, including default values,
siesta: can be found in file out.fdf
siesta:
redata: Non-Collinear-spin run           =     F
redata: SpinPolarized (Up/Down) run      =     F
redata: Number of spin components        =     1
redata: Max. number of SCF Iter          =       50
redata: Long output                      =     F
redata: Number of Atomic Species         =        1
redata: Charge density info will appear in .RHO file
redata: Performing Pulay mixing using    =     3 iterations
redata: Write Mulliken Pop.              =     Atomic and Orbital charges
redata: Mix DM in first SCF step ?       =     F
redata: Write Pulay info on disk?        =     F
redata: Discard 1st Pulay DM after  kick =     F
redata: New DM Mixing Weight             =     0.3000
redata: Mesh Cutoff                      =   100.0000  Ry
redata: New DM Occupancy tolerance       = 0.000000000001
redata: Net charge of the system         =     0.0000 |e|
redata: No kicks to SCF
redata: DM Mixing Weight for Kicks       =     0.5000
redata: Max. number of SCF Iter          =       50
redata: DM Tolerance for SCF             =     0.001000
redata: Require Energy convergence for SCF =     F
redata: Performing Pulay mixing using    =     3 iterations
redata: DM Energy tolerance for SCF      =     0.000100 eV
redata: Mix DM in first SCF step ?       =     F
redata: Require Harris convergence for SCF =     F
redata: Write Pulay info on disk?        =     F
redata: DM Harris energy tolerance for SCF =     0.000100 eV
redata: Discard 1st Pulay DM after  kick =     F
redata: Using Saved Data (generic)   =     F
redata: New DM Mixing Weight             =     0.3000
redata: Use continuation files for DM    =     T
redata: New DM Occupancy tolerance       = 0.000000000001
redata: Neglect nonoverlap interactions  =     F
redata: No kicks to SCF
redata: DM Mixing Weight for Kicks       =     0.5000
redata: Method of Calculation            =     Diagonalization
redata: Divide and Conquer               =     T
redata: DM Tolerance for SCF             =     0.001000
redata: Require Energy convergence for SCF =     F
redata: Electronic Temperature           =     0.0018  Ry
redata: DM Energy tolerance for SCF      =     0.000100 eV
redata: Fix the spin of the system       =     F
redata: Require Harris convergence for SCF =     F
redata: DM Harris energy tolerance for SCF =     0.000100 eV
redata: Using Saved Data (generic)   =     F
redata: Use continuation files for DM    =     T
redata: Neglect nonoverlap interactions  =     F
redata: Method of Calculation            =     Diagonalization
redata: Divide and Conquer               =     T
redata: Electronic Temperature           =     0.0018  Ry
redata: Fix the spin of the system       =     F
redata: Dynamics option                  =     CG coord. optimization
redata: Variable cell                    =     T
redata: Use continuation files for CG    =     F
redata: Max atomic displ per move        =     0.2000  Bohr
redata: Maximum number of CG moves       =      100
redata: Force tolerance                  =     0.0016  Ry/Bohr
redata: Stress tolerance                 =     1.0000  GPa
redata: Dynamics option                  =     CG coord. optimization
redata: Variable cell                    =     T
redata: Use continuation files for CG    =     F
redata: Max atomic displ per move        =     0.2000  Bohr
redata: Maximum number of CG moves       =      100
redata: Force tolerance                  =     0.0016  Ry/Bohr
redata: Stress tolerance                 =     1.0000  GPa
redata: ***********************************************************************
redata: ***********************************************************************
Total number of electrons:    32.000000
Total ionic charge:    32.000000
Total number of electrons:    32.000000
Total ionic charge:    32.000000
 Kpoints in:          108 . Kpoints trimmed:          108

siesta: k-grid: Number of k-points =   108
siesta: k-grid: Cutoff (effective) =    17.700 Ang
siesta: k-grid: Supercell and displacements
siesta: k-grid:    0   6   0      0.500
siesta: k-grid:    0   0   6      0.500
siesta: k-grid:    6   0   0      0.500
 Kpoints in:          108 . Kpoints trimmed:          108

siesta: k-grid: Number of k-points =   108
siesta: k-grid: Cutoff (effective) =    17.700 Ang
siesta: k-grid: Supercell and displacements
siesta: k-grid:    0   6   0      0.500
siesta: k-grid:    0   0   6      0.500
siesta: k-grid:    6   0   0      0.500
Naive supercell factors:     4    4    4

superc: Internal auxiliary supercell:     4 x     4 x     4  =      64
superc: Number of atoms, orbitals, and projectors:    512   6656   8192

* Maximum dynamic memory allocated =     1 MB

siesta:                 ==============================
                            Begin CG move =      0
                        ==============================

outcoor: Atomic coordinates (Ang):                          
    0.00000000    0.00000000    0.00000000   1       1  Si
    1.36000000    1.36000000    1.36000000   1       2  Si
    2.72000000    2.72000000    0.00000000   1       3  Si
    4.08000000    4.08000000    1.36000000   1       4  Si
    2.72000000    0.00000000    2.72000000   1       5  Si
    4.08000000    1.36000000    4.08000000   1       6  Si
    0.00000000    2.72000000    2.72000000   1       7  Si
    1.36000000    4.08000000    4.08000000   1       8  Si
Naive supercell factors:     4    4    4

superc: Internal auxiliary supercell:     4 x     4 x     4  =      64
superc: Number of atoms, orbitals, and projectors:    512   6656   8192

* Maximum dynamic memory allocated =     1 MB

siesta:                 ==============================
                            Begin CG move =      0
                        ==============================

superc: Internal auxiliary supercell:     4 x     4 x     4  =      64
superc: Number of atoms, orbitals, and projectors:    512   6656   8192

outcell: Unit cell vectors (Ang):
        5.900000    0.000000    0.000000
        0.000000    5.900000    0.000000
        0.000000    0.000000    5.900000


outcell: Cell vector modules (Ang)   :    5.900000    5.900000    5.900000
outcoor: Atomic coordinates (Ang):                          
outcell: Cell angles (23,13,12) (deg):     90.0000     90.0000     90.0000
outcell: Cell volume (Ang**3)        :    205.3790
    0.00000000    0.00000000    0.00000000   1       1  Si
    1.36000000    1.36000000    1.36000000   1       2  Si
    2.72000000    2.72000000    0.00000000   1       3  Si
    4.08000000    4.08000000    1.36000000   1       4  Si
    2.72000000    0.00000000    2.72000000   1       5  Si
    4.08000000    1.36000000    4.08000000   1       6  Si
    0.00000000    2.72000000    2.72000000   1       7  Si
    1.36000000    4.08000000    4.08000000   1       8  Si

superc: Internal auxiliary supercell:     4 x     4 x     4  =      64
superc: Number of atoms, orbitals, and projectors:    512   6656   8192

outcell: Unit cell vectors (Ang):
        5.900000    0.000000    0.000000
        0.000000    5.900000    0.000000
        0.000000    0.000000    5.900000

outcell: Cell vector modules (Ang)   :    5.900000    5.900000    5.900000
outcell: Cell angles (23,13,12) (deg):     90.0000     90.0000     90.0000
outcell: Cell volume (Ang**3)        :    205.3790
New_DM. Step:     1
Initializing Density Matrix...
New_DM. Step:     1
Initializing Density Matrix...

InitMesh: MESH =    36 x    36 x    36 =       46656
InitMesh: Mesh cutoff (required, used) =   100.000   102.897 Ry

InitMesh: MESH =    36 x    36 x    36 =       46656
InitMesh: Mesh cutoff (required, used) =   100.000   102.897 Ry

* Maximum dynamic memory allocated =    59 MB

* Maximum dynamic memory allocated =    59 MB

stepf: Fermi-Dirac step function

stepf: Fermi-Dirac step function

siesta: Program's energy decomposition (eV):
siesta: Ebs     =      -324.087315
siesta: Eions   =      1510.441798
siesta: Ena     =       477.023695
siesta: Ekin    =       288.938730
siesta: Enl     =       128.878375
siesta: DEna    =         0.000001
siesta: DUscf   =         0.000000
siesta: DUext   =         0.000000
siesta: Exc     =      -244.758681
siesta: eta*DQ  =         0.000000
siesta: Emadel  =         0.000000
siesta: Emeta   =         0.000000
siesta: Emolmec =         0.000000
siesta: Ekinion =         0.000000
siesta: Eharris =      -857.854515
siesta: Etot    =      -860.359679
siesta: FreeEng =      -860.359679

siesta: iscf   Eharris(eV)      E_KS(eV)   FreeEng(eV)   dDmax  Ef(eV)
siesta:    1     -857.8545     -860.3597     -860.3597  1.8658 -5.2259
timer: Routine,Calls,Time,% = IterSCF        1      12.941  96.37
elaps: Routine,Calls,Wall,% = IterSCF        1      12.995  96.34

siesta: Program's energy decomposition (eV):
siesta: Ebs     =      -324.087315
siesta: Eions   =      1510.441798
siesta: Ena     =       477.023695
siesta: Ekin    =       288.938730
siesta: Enl     =       128.878375
siesta: DEna    =         0.000001
siesta: DUscf   =         0.000000
siesta: DUext   =         0.000000
siesta: Exc     =      -244.758681
siesta: eta*DQ  =         0.000000
siesta: Emadel  =         0.000000
siesta: Emeta   =         0.000000
siesta: Emolmec =         0.000000
siesta: Ekinion =         0.000000
siesta: Eharris =      -857.854515
siesta: Etot    =      -860.359679
siesta: FreeEng =      -860.359679

siesta: iscf   Eharris(eV)      E_KS(eV)   FreeEng(eV)   dDmax  Ef(eV)
siesta:    1     -857.8545     -860.3597     -860.3597  1.8658 -5.2259
timer: Routine,Calls,Time,% = IterSCF        1      13.085  96.35
elaps: Routine,Calls,Wall,% = IterSCF        1      13.148  96.35
siesta:    2     -857.6673     -857.5184     -857.5210  0.0846 -5.0562
siesta:    2     -857.6673     -857.5184     -857.5210  0.0846 -5.0562
siesta:    3     -857.5955     -857.6136     -857.6168  0.0257 -5.0781
siesta:    3     -857.5955     -857.6136     -857.6168  0.0257 -5.0781
siesta:    4     -857.5898     -857.5884     -857.5909  0.0149 -5.0799
siesta:    4     -857.5898     -857.5884     -857.5909  0.0149 -5.0799
siesta:    5     -857.5882     -857.5889     -857.5916  0.0072 -5.0899
siesta:    5     -857.5882     -857.5889     -857.5916  0.0072 -5.0899
siesta:    6     -857.5881     -857.5868     -857.5894  0.0042 -5.0908
siesta:    6     -857.5881     -857.5868     -857.5894  0.0042 -5.0908
siesta:    7     -857.5880     -857.5857     -857.5883  0.0010 -5.0915
siesta:    7     -857.5880     -857.5857     -857.5883  0.0010 -5.0915
siesta:    8     -857.5880     -857.5863     -857.5889  0.0004 -5.0912
siesta:    8     -857.5880     -857.5863     -857.5889  0.0004 -5.0912

siesta: E_KS(eV) =             -857.5871

siesta: E_KS - E_eggbox =      -857.5871

siesta: Atomic forces (eV/Ang):
----------------------------------------
   Tot   -0.001976   -0.001973   -0.001979
----------------------------------------
   Max    2.283489
   Res    1.341511    sqrt( Sum f_i^2 / 3N )
----------------------------------------
   Max    2.283489    constrained

Stress-tensor-Voigt (kbar):      101.96      101.96      101.96      -10.73      -10.73      -10.73
(Free)E + p*V (eV/cell)     -870.6590
Target enthalpy (eV/cell)     -857.5897

siesta: Stress tensor (static) (eV/Ang**3):
         0.063635   -0.006697   -0.006697
        -0.006697    0.063635   -0.006697
        -0.006697   -0.006697    0.063635

siesta: Pressure (static):       -101.95613048  kBar

siesta: Stress tensor (total) (eV/Ang**3):
         0.063635   -0.006697   -0.006697
        -0.006697    0.063635   -0.006697
        -0.006697   -0.006697    0.063635

siesta: Pressure (total):       -101.95613048  kBar

mulliken: Mulliken Atomic and Orbital Populations:

Species: Si                  
Atom  Qatom  Qorb
               3s      3s      3py     3pz     3px     3py     3pz     3px     
               3Pdxy   3Pdyz   3Pdz2   3Pdxz   3Pdx2-y2
   1  4.119   1.085   0.380   0.546   0.546   0.546   0.245   0.245   0.245
              0.069   0.069   0.037   0.069   0.037
   2  3.948   0.514   0.647   0.217   0.217   0.217   0.529   0.529   0.529
              0.129   0.129   0.083   0.129   0.083
   3  3.956   0.692   0.565   0.355   0.292   0.355   0.405   0.448   0.405
              0.097   0.107   0.076   0.107   0.053
   4  4.021   0.890   0.472   0.406   0.493   0.406   0.358   0.283   0.358
              0.093   0.083   0.042   0.083   0.055
   5  3.956   0.692   0.565   0.292   0.355   0.355   0.448   0.405   0.405
              0.107   0.107   0.059   0.097   0.070
   6  4.021   0.890   0.472   0.493   0.406   0.406   0.283   0.358   0.358
              0.083   0.083   0.052   0.093   0.045
   7  3.956   0.692   0.565   0.355   0.355   0.292   0.405   0.405   0.448
              0.107   0.097   0.059   0.107   0.070
   8  4.021   0.890   0.472   0.406   0.406   0.493   0.358   0.358   0.283
              0.083   0.093   0.052   0.083   0.045

mulliken: Qtot =       32.000

cgvc: No target stress found, assuming hydrostatic MD.TargetPressure.

cgvc: Target stress (kBar)
cgvc:        -0.000       0.000       0.000
cgvc:         0.000      -0.000       0.000
cgvc:         0.000       0.000      -0.000

* Maximum dynamic memory allocated =    61 MB

siesta:                 ==============================
                            Begin CG move =      1
                        ==============================

outcoor: Atomic coordinates (Ang):                          
   -0.02277712   -0.02277709   -0.02277706   1       1  Si
    1.34909525    1.34909528    1.34909524   1       2  Si
    2.70606710    2.70606710   -0.02605340   1       3  Si
    4.07824001    4.07823999    1.36192483   1       4  Si
    2.70606716   -0.02605327    2.70606723   1       5  Si
    4.07823996    1.36192484    4.07823998   1       6  Si
   -0.02605322    2.70606722    2.70606728   1       7  Si
    1.36192482    4.07823992    4.07823995   1       8  Si
 Kpoints in:          108 . Kpoints trimmed:          108

siesta: k-grid: Number of k-points =   108
siesta: k-grid: Cutoff (effective) =    17.578 Ang
siesta: k-grid: Supercell and displacements
siesta: k-grid:    6   0   0      0.500
siesta: k-grid:    0   6   0      0.500
siesta: k-grid:    0   0   6      0.500
Naive supercell factors:     4    4    4

superc: Internal auxiliary supercell:     4 x     4 x     4  =      64
superc: Number of atoms, orbitals, and projectors:    512   6656   8192

outcell: Unit cell vectors (Ang):
        5.859169    0.004297    0.004297
        0.004297    5.859169    0.004297
        0.004297    0.004297    5.859169

outcell: Cell vector modules (Ang)   :    5.859172    5.859172    5.859172
outcell: Cell angles (23,13,12) (deg):     89.9159     89.9159     89.9159
outcell: Cell volume (Ang**3)        :    201.1441

siesta: E_KS(eV) =             -857.5871

siesta: E_KS - E_eggbox =      -857.5871

siesta: Atomic forces (eV/Ang):
----------------------------------------
   Tot   -0.001976   -0.001973   -0.001979
----------------------------------------
   Max    2.283489
   Res    1.341511    sqrt( Sum f_i^2 / 3N )
----------------------------------------
   Max    2.283489    constrained

Stress-tensor-Voigt (kbar):      101.96      101.96      101.96      -10.73      -10.73      -10.73
(Free)E + p*V (eV/cell)     -870.6590
Target enthalpy (eV/cell)     -857.5897

siesta: Stress tensor (static) (eV/Ang**3):
         0.063635   -0.006697   -0.006697
        -0.006697    0.063635   -0.006697
        -0.006697   -0.006697    0.063635

siesta: Pressure (static):       -101.95613048  kBar

siesta: Stress tensor (total) (eV/Ang**3):
         0.063635   -0.006697   -0.006697
        -0.006697    0.063635   -0.006697
        -0.006697   -0.006697    0.063635

siesta: Pressure (total):       -101.95613048  kBar

mulliken: Mulliken Atomic and Orbital Populations:

Species: Si                  
Atom  Qatom  Qorb
               3s      3s      3py     3pz     3px     3py     3pz     3px     
               3Pdxy   3Pdyz   3Pdz2   3Pdxz   3Pdx2-y2
   1  4.119   1.085   0.380   0.546   0.546   0.546   0.245   0.245   0.245
              0.069   0.069   0.037   0.069   0.037
   2  3.948   0.514   0.647   0.217   0.217   0.217   0.529   0.529   0.529
              0.129   0.129   0.083   0.129   0.083
   3  3.956   0.692   0.565   0.355   0.292   0.355   0.405   0.448   0.405
              0.097   0.107   0.076   0.107   0.053
   4  4.021   0.890   0.472   0.406   0.493   0.406   0.358   0.283   0.358
              0.093   0.083   0.042   0.083   0.055
   5  3.956   0.692   0.565   0.292   0.355   0.355   0.448   0.405   0.405
              0.107   0.107   0.059   0.097   0.070
   6  4.021   0.890   0.472   0.493   0.406   0.406   0.283   0.358   0.358
              0.083   0.083   0.052   0.093   0.045
   7  3.956   0.692   0.565   0.355   0.355   0.292   0.405   0.405   0.448
              0.107   0.097   0.059   0.107   0.070
   8  4.021   0.890   0.472   0.406   0.406   0.493   0.358   0.358   0.283
              0.083   0.093   0.052   0.083   0.045

mulliken: Qtot =       32.000

cgvc: No target stress found, assuming hydrostatic MD.TargetPressure.

cgvc: Target stress (kBar)
cgvc:        -0.000       0.000       0.000
cgvc:         0.000      -0.000       0.000
cgvc:         0.000       0.000      -0.000

* Maximum dynamic memory allocated =    61 MB

siesta:                 ==============================
                            Begin CG move =      1
                        ==============================

outcoor: Atomic coordinates (Ang):                          
   -0.02277712   -0.02277709   -0.02277706   1       1  Si
    1.34909525    1.34909528    1.34909524   1       2  Si
    2.70606710    2.70606710   -0.02605340   1       3  Si
    4.07824001    4.07823999    1.36192483   1       4  Si
    2.70606716   -0.02605327    2.70606723   1       5  Si
    4.07823996    1.36192484    4.07823998   1       6  Si
   -0.02605322    2.70606722    2.70606728   1       7  Si
    1.36192482    4.07823992    4.07823995   1       8  Si
 Kpoints in:          108 . Kpoints trimmed:          108

siesta: k-grid: Number of k-points =   108
siesta: k-grid: Cutoff (effective) =    17.578 Ang
siesta: k-grid: Supercell and displacements
siesta: k-grid:    6   0   0      0.500
siesta: k-grid:    0   6   0      0.500
siesta: k-grid:    0   0   6      0.500
Naive supercell factors:     4    4    4

superc: Internal auxiliary supercell:     4 x     4 x     4  =      64
superc: Number of atoms, orbitals, and projectors:    512   6656   8192

outcell: Unit cell vectors (Ang):
        5.859169    0.004297    0.004297
        0.004297    5.859169    0.004297
        0.004297    0.004297    5.859169

outcell: Cell vector modules (Ang)   :    5.859172    5.859172    5.859172
outcell: Cell angles (23,13,12) (deg):     89.9159     89.9159     89.9159
outcell: Cell volume (Ang**3)        :    201.1441
New_DM. Step:     2
Re-using DM from previous geometry...
Re-using DM without extrapolation (not allowed)
Density Matrix sparsity pattern changed.
New_DM. Step:     2
Re-using DM from previous geometry...
Re-using DM without extrapolation (not allowed)
Density Matrix sparsity pattern changed.

InitMesh: MESH =    36 x    36 x    36 =       46656
InitMesh: Mesh cutoff (required, used) =   100.000   104.336 Ry

InitMesh: MESH =    36 x    36 x    36 =       46656
InitMesh: Mesh cutoff (required, used) =   100.000   104.336 Ry

siesta: iscf   Eharris(eV)      E_KS(eV)   FreeEng(eV)   dDmax  Ef(eV)
siesta:    1     -858.4328     -858.3951     -858.3977  0.0614 -5.1457

siesta: iscf   Eharris(eV)      E_KS(eV)   FreeEng(eV)   dDmax  Ef(eV)
siesta:    1     -858.4328     -858.3951     -858.3977  0.0614 -5.1457
siesta:    2     -858.5529     -858.3428     -858.3450  0.0583 -5.1856
siesta:    2     -858.5529     -858.3428     -858.3450  0.0583 -5.1856
siesta:    3     -858.4053     -858.3787     -858.3809  0.0195 -5.1613
siesta:    3     -858.4053     -858.3787     -858.3809  0.0195 -5.1613
siesta:    4     -858.4053     -858.3861     -858.3883  0.0024 -5.1576
siesta:    4     -858.4053     -858.3861     -858.3883  0.0024 -5.1576
siesta:    5     -858.4053     -858.3924     -858.3946  0.0014 -5.1578
siesta:    5     -858.4053     -858.3924     -858.3946  0.0014 -5.1578
siesta:    6     -858.4053     -858.4020     -858.4042  0.0001 -5.1583
siesta:    6     -858.4053     -858.4020     -858.4042  0.0001 -5.1583

siesta: E_KS(eV) =             -858.4032

siesta: Atomic forces (eV/Ang):
----------------------------------------
   Tot   -0.003566   -0.003567   -0.003574
----------------------------------------
   Max    1.955552
   Res    1.189512    sqrt( Sum f_i^2 / 3N )
----------------------------------------
   Max    1.955552    constrained

Stress-tensor-Voigt (kbar):      104.80      104.80      104.80       -7.08       -7.08       -7.08
(Free)E + p*V (eV/cell)     -871.5629
Target enthalpy (eV/cell)     -858.4054

siesta: Stress tensor (static) (eV/Ang**3):
         0.065413   -0.004417   -0.004417
        -0.004417    0.065413   -0.004417
        -0.004417   -0.004417    0.065413

siesta: Pressure (static):       -104.80443577  kBar

siesta: Stress tensor (total) (eV/Ang**3):
         0.065413   -0.004417   -0.004417
        -0.004417    0.065413   -0.004417
        -0.004417   -0.004417    0.065413

siesta: Pressure (total):       -104.80443577  kBar

mulliken: Mulliken Atomic and Orbital Populations:

Species: Si                  
Atom  Qatom  Qorb
               3s      3s      3py     3pz     3px     3py     3pz     3px     
               3Pdxy   3Pdyz   3Pdz2   3Pdxz   3Pdx2-y2
   1  4.104   1.037   0.400   0.525   0.525   0.525   0.265   0.265   0.265
              0.073   0.073   0.039   0.073   0.039
   2  3.955   0.539   0.631   0.231   0.231   0.231   0.519   0.519   0.519
              0.126   0.126   0.079   0.126   0.079
   3  3.964   0.691   0.561   0.352   0.284   0.352   0.411   0.457   0.411
              0.098   0.108   0.076   0.108   0.054
   4  4.017   0.862   0.482   0.392   0.473   0.392   0.371   0.305   0.371
              0.096   0.086   0.044   0.086   0.055
   5  3.964   0.691   0.561   0.284   0.352   0.352   0.457   0.411   0.411
              0.108   0.108   0.059   0.098   0.070
   6  4.017   0.862   0.482   0.473   0.392   0.392   0.305   0.371   0.371
              0.086   0.086   0.052   0.096   0.047
   7  3.964   0.691   0.561   0.352   0.352   0.284   0.411   0.411   0.457
              0.108   0.098   0.059   0.108   0.070
   8  4.017   0.862   0.482   0.392   0.392   0.473   0.371   0.371   0.305
              0.086   0.096   0.052   0.086   0.047

mulliken: Qtot =       32.000

* Maximum dynamic memory allocated =    68 MB

siesta:                 ==============================
                            Begin CG move =      2
                        ==============================

outcoor: Atomic coordinates (Ang):                          
   -0.05869994   -0.05869987   -0.05869979   1       1  Si
    1.33172705    1.33172712    1.33172701   1       2  Si
    2.68360687    2.68360686   -0.06685067   1       3  Si
    4.07485692    4.07485689    1.36498642   1       4  Si
    2.68360703   -0.06685034    2.68360721   1       5  Si
    4.07485679    1.36498643    4.07485686   1       6  Si
   -0.06685022    2.68360717    2.68360733   1       7  Si
    1.36498638    4.07485670    4.07485678   1       8  Si
 Kpoints in:          108 . Kpoints trimmed:          108

siesta: k-grid: Number of k-points =   108
siesta: k-grid: Cutoff (effective) =    17.382 Ang
siesta: k-grid: Supercell and displacements
siesta: k-grid:    6   0   0      0.500
siesta: k-grid:    0   6   0      0.500
siesta: k-grid:    0   0   6      0.500
Naive supercell factors:     5    5    5

superc: Internal auxiliary supercell:     5 x     5 x     5  =     125
superc: Number of atoms, orbitals, and projectors:   1000  13000  16000

outcell: Unit cell vectors (Ang):
        5.793838    0.011173    0.011173
        0.011173    5.793838    0.011173
        0.011173    0.011173    5.793839

outcell: Cell vector modules (Ang)   :    5.793860    5.793860    5.793860
outcell: Cell angles (23,13,12) (deg):     89.7788     89.7788     89.7788
outcell: Cell volume (Ang**3)        :    194.4887

siesta: E_KS(eV) =             -858.4032

siesta: Atomic forces (eV/Ang):
----------------------------------------
   Tot   -0.003566   -0.003567   -0.003574
----------------------------------------
   Max    1.955552
   Res    1.189512    sqrt( Sum f_i^2 / 3N )
----------------------------------------
   Max    1.955552    constrained

Stress-tensor-Voigt (kbar):      104.80      104.80      104.80       -7.08       -7.08       -7.08
(Free)E + p*V (eV/cell)     -871.5629
Target enthalpy (eV/cell)     -858.4054

siesta: Stress tensor (static) (eV/Ang**3):
         0.065413   -0.004417   -0.004417
        -0.004417    0.065413   -0.004417
        -0.004417   -0.004417    0.065413

siesta: Pressure (static):       -104.80443577  kBar

siesta: Stress tensor (total) (eV/Ang**3):
         0.065413   -0.004417   -0.004417
        -0.004417    0.065413   -0.004417
        -0.004417   -0.004417    0.065413

siesta: Pressure (total):       -104.80443577  kBar

mulliken: Mulliken Atomic and Orbital Populations:

Species: Si                  
Atom  Qatom  Qorb
               3s      3s      3py     3pz     3px     3py     3pz     3px     
               3Pdxy   3Pdyz   3Pdz2   3Pdxz   3Pdx2-y2
   1  4.104   1.037   0.400   0.525   0.525   0.525   0.265   0.265   0.265
              0.073   0.073   0.039   0.073   0.039
   2  3.955   0.539   0.631   0.231   0.231   0.231   0.519   0.519   0.519
              0.126   0.126   0.079   0.126   0.079
   3  3.964   0.691   0.561   0.352   0.284   0.352   0.411   0.457   0.411
              0.098   0.108   0.076   0.108   0.054
   4  4.017   0.862   0.482   0.392   0.473   0.392   0.371   0.305   0.371
              0.096   0.086   0.044   0.086   0.055
   5  3.964   0.691   0.561   0.284   0.352   0.352   0.457   0.411   0.411
              0.108   0.108   0.059   0.098   0.070
   6  4.017   0.862   0.482   0.473   0.392   0.392   0.305   0.371   0.371
              0.086   0.086   0.052   0.096   0.047
   7  3.964   0.691   0.561   0.352   0.352   0.284   0.411   0.411   0.457
              0.108   0.098   0.059   0.108   0.070
   8  4.017   0.862   0.482   0.392   0.392   0.473   0.371   0.371   0.305
              0.086   0.096   0.052   0.086   0.047

mulliken: Qtot =       32.000

* Maximum dynamic memory allocated =    68 MB

siesta:                 ==============================
                            Begin CG move =      2
                        ==============================

outcoor: Atomic coordinates (Ang):                          
   -0.05869994   -0.05869987   -0.05869979   1       1  Si
    1.33172705    1.33172712    1.33172701   1       2  Si
    2.68360687    2.68360686   -0.06685067   1       3  Si
    4.07485692    4.07485689    1.36498642   1       4  Si
    2.68360703   -0.06685034    2.68360721   1       5  Si
    4.07485679    1.36498643    4.07485686   1       6  Si
   -0.06685022    2.68360717    2.68360733   1       7  Si
    1.36498638    4.07485670    4.07485678   1       8  Si
 Kpoints in:          108 . Kpoints trimmed:          108

siesta: k-grid: Number of k-points =   108
siesta: k-grid: Cutoff (effective) =    17.382 Ang
siesta: k-grid: Supercell and displacements
siesta: k-grid:    6   0   0      0.500
siesta: k-grid:    0   6   0      0.500
siesta: k-grid:    0   0   6      0.500
Naive supercell factors:     5    5    5

superc: Internal auxiliary supercell:     5 x     5 x     5  =     125
superc: Number of atoms, orbitals, and projectors:   1000  13000  16000

outcell: Unit cell vectors (Ang):
        5.793838    0.011173    0.011173
        0.011173    5.793838    0.011173
        0.011173    0.011173    5.793839

outcell: Cell vector modules (Ang)   :    5.793860    5.793860    5.793860
outcell: Cell angles (23,13,12) (deg):     89.7788     89.7788     89.7788
outcell: Cell volume (Ang**3)        :    194.4887
New_DM. Step:     3
DM reset as supercell changed.
Initializing Density Matrix...
New_DM. Step:     3
DM reset as supercell changed.
Initializing Density Matrix...

InitMesh: MESH =    36 x    36 x    36 =       46656
InitMesh: Mesh cutoff (required, used) =   100.000   106.705 Ry

InitMesh: MESH =    36 x    36 x    36 =       46656
InitMesh: Mesh cutoff (required, used) =   100.000   106.705 Ry

siesta: iscf   Eharris(eV)      E_KS(eV)   FreeEng(eV)   dDmax  Ef(eV)
siesta:    1     -859.8483     -863.4228     -863.4250  1.8224 -5.3215

siesta: iscf   Eharris(eV)      E_KS(eV)   FreeEng(eV)   dDmax  Ef(eV)
siesta:    1     -859.8483     -863.4228     -863.4250  1.8224 -5.3215
siesta:    2     -859.5985     -859.4870     -859.4871  0.0736 -5.1739
siesta:    2     -859.5985     -859.4870     -859.4871  0.0736 -5.1739
siesta:    3     -859.5566     -859.6347     -859.6372  0.0301 -5.1706
siesta:    3     -859.5566     -859.6347     -859.6372  0.0301 -5.1706
siesta:    4     -859.5525     -859.5643     -859.5658  0.0086 -5.1770
siesta:    4     -859.5525     -859.5643     -859.5658  0.0086 -5.1770
siesta:    5     -859.5521     -859.5477     -859.5492  0.0025 -5.1808
siesta:    5     -859.5521     -859.5477     -859.5492  0.0025 -5.1808
siesta:    6     -859.5520     -859.5498     -859.5511  0.0020 -5.1829
siesta:    6     -859.5520     -859.5498     -859.5511  0.0020 -5.1829
siesta:    7     -859.5520     -859.5521     -859.5534  0.0012 -5.1837
siesta:    7     -859.5520     -859.5521     -859.5534  0.0012 -5.1837
siesta:    8     -859.5520     -859.5527     -859.5540  0.0004 -5.1834
siesta:    8     -859.5520     -859.5527     -859.5540  0.0004 -5.1834

siesta: E_KS(eV) =             -859.5526

siesta: Atomic forces (eV/Ang):
----------------------------------------
   Tot    0.002903    0.002895    0.002900
----------------------------------------
   Max    1.357621
   Res    0.952867    sqrt( Sum f_i^2 / 3N )
----------------------------------------
   Max    1.357621    constrained

Stress-tensor-Voigt (kbar):      103.84      103.84      103.84       -1.87       -1.87       -1.87
(Free)E + p*V (eV/cell)     -872.1587
Target enthalpy (eV/cell)     -859.5539

siesta: Stress tensor (static) (eV/Ang**3):
         0.064810   -0.001166   -0.001166
        -0.001166    0.064810   -0.001166
        -0.001166   -0.001166    0.064810

siesta: Pressure (static):       -103.83812297  kBar

siesta: Stress tensor (total) (eV/Ang**3):
         0.064810   -0.001166   -0.001166
        -0.001166    0.064810   -0.001166
        -0.001166   -0.001166    0.064810

siesta: Pressure (total):       -103.83812297  kBar

mulliken: Mulliken Atomic and Orbital Populations:

Species: Si                  
Atom  Qatom  Qorb
               3s      3s      3py     3pz     3px     3py     3pz     3px     
               3Pdxy   3Pdyz   3Pdz2   3Pdxz   3Pdx2-y2
   1  4.085   0.970   0.425   0.486   0.486   0.486   0.303   0.303   0.303
              0.080   0.080   0.042   0.080   0.042
   2  3.969   0.581   0.608   0.250   0.250   0.250   0.506   0.506   0.506
              0.122   0.122   0.075   0.122   0.075
   3  3.973   0.689   0.556   0.343   0.276   0.343   0.423   0.470   0.423
              0.101   0.111   0.071   0.111   0.055
   4  4.009   0.819   0.496   0.369   0.435   0.369   0.396   0.342   0.396
              0.100   0.091   0.047   0.091   0.057
   5  3.973   0.689   0.556   0.276   0.343   0.343   0.470   0.423   0.423
              0.111   0.111   0.059   0.101   0.067
   6  4.009   0.819   0.496   0.435   0.369   0.369   0.342   0.396   0.396
              0.091   0.091   0.055   0.100   0.050
   7  3.973   0.689   0.556   0.343   0.343   0.276   0.423   0.423   0.470
              0.111   0.101   0.059   0.111   0.067
   8  4.009   0.819   0.496   0.369   0.369   0.435   0.396   0.396   0.342
              0.091   0.100   0.055   0.091   0.050

mulliken: Qtot =       32.000

* Maximum dynamic memory allocated =    72 MB

siesta:                 ==============================
                            Begin CG move =      3
                        ==============================

outcoor: Atomic coordinates (Ang):                          
   -0.11484383   -0.11484369   -0.11484353   1       1  Si
    1.30414117    1.30414132    1.30414111   1       2  Si
    2.64724147    2.64724146   -0.12985261   1       3  Si
    4.06799220    4.06799214    1.36983853   1       4  Si
    2.64724179   -0.12985197    2.64724215   1       5  Si
    4.06799195    1.36983855    4.06799210   1       6  Si
   -0.12985174    2.64724206    2.64724237   1       7  Si
    1.36983844    4.06799178    4.06799194   1       8  Si
 Kpoints in:          108 . Kpoints trimmed:          108

siesta: k-grid: Number of k-points =   108
siesta: k-grid: Cutoff (effective) =    17.068 Ang
siesta: k-grid: Supercell and displacements
siesta: k-grid:    6   0   0      0.500
siesta: k-grid:    0   6   0      0.500
siesta: k-grid:    0   0   6      0.500
Naive supercell factors:     5    5    5

superc: Internal auxiliary supercell:     5 x     5 x     5  =     125
superc: Number of atoms, orbitals, and projectors:   1000  13000  16000

outcell: Unit cell vectors (Ang):
        5.689310    0.022174    0.022174
        0.022174    5.689310    0.022174
        0.022174    0.022174    5.689310

outcell: Cell vector modules (Ang)   :    5.689397    5.689397    5.689397
outcell: Cell angles (23,13,12) (deg):     89.5525     89.5525     89.5525
outcell: Cell volume (Ang**3)        :    184.1447
New_DM. Step:     4
Re-using DM from previous geometry...
Re-using DM without extrapolation (not allowed)
Density Matrix sparsity pattern changed.

siesta: E_KS(eV) =             -859.5526

siesta: Atomic forces (eV/Ang):
----------------------------------------
   Tot    0.002903    0.002895    0.002900
----------------------------------------
   Max    1.357621
   Res    0.952867    sqrt( Sum f_i^2 / 3N )
----------------------------------------
   Max    1.357621    constrained

Stress-tensor-Voigt (kbar):      103.84      103.84      103.84       -1.87       -1.87       -1.87
(Free)E + p*V (eV/cell)     -872.1587
Target enthalpy (eV/cell)     -859.5539

siesta: Stress tensor (static) (eV/Ang**3):
         0.064810   -0.001166   -0.001166
        -0.001166    0.064810   -0.001166
        -0.001166   -0.001166    0.064810

siesta: Pressure (static):       -103.83812297  kBar

siesta: Stress tensor (total) (eV/Ang**3):
         0.064810   -0.001166   -0.001166
        -0.001166    0.064810   -0.001166
        -0.001166   -0.001166    0.064810

siesta: Pressure (total):       -103.83812297  kBar

mulliken: Mulliken Atomic and Orbital Populations:

Species: Si                  
Atom  Qatom  Qorb
               3s      3s      3py     3pz     3px     3py     3pz     3px     
               3Pdxy   3Pdyz   3Pdz2   3Pdxz   3Pdx2-y2
   1  4.085   0.970   0.425   0.486   0.486   0.486   0.303   0.303   0.303
              0.080   0.080   0.042   0.080   0.042
   2  3.969   0.581   0.608   0.250   0.250   0.250   0.506   0.506   0.506
              0.122   0.122   0.075   0.122   0.075
   3  3.973   0.689   0.556   0.343   0.276   0.343   0.423   0.470   0.423
              0.101   0.111   0.071   0.111   0.055
   4  4.009   0.819   0.496   0.369   0.435   0.369   0.396   0.342   0.396
              0.100   0.091   0.047   0.091   0.057
   5  3.973   0.689   0.556   0.276   0.343   0.343   0.470   0.423   0.423
              0.111   0.111   0.059   0.101   0.067
   6  4.009   0.819   0.496   0.435   0.369   0.369   0.342   0.396   0.396
              0.091   0.091   0.055   0.100   0.050
   7  3.973   0.689   0.556   0.343   0.343   0.276   0.423   0.423   0.470
              0.111   0.101   0.059   0.111   0.067
   8  4.009   0.819   0.496   0.369   0.369   0.435   0.396   0.396   0.342
              0.091   0.100   0.055   0.091   0.050

mulliken: Qtot =       32.000

* Maximum dynamic memory allocated =    72 MB

siesta:                 ==============================
                            Begin CG move =      3
                        ==============================

outcoor: Atomic coordinates (Ang):                          
   -0.11484383   -0.11484369   -0.11484353   1       1  Si
    1.30414117    1.30414132    1.30414111   1       2  Si
    2.64724147    2.64724146   -0.12985261   1       3  Si
    4.06799220    4.06799214    1.36983853   1       4  Si
    2.64724179   -0.12985197    2.64724215   1       5  Si
    4.06799195    1.36983855    4.06799210   1       6  Si
   -0.12985174    2.64724206    2.64724237   1       7  Si
    1.36983844    4.06799178    4.06799194   1       8  Si
 Kpoints in:          108 . Kpoints trimmed:          108

siesta: k-grid: Number of k-points =   108
siesta: k-grid: Cutoff (effective) =    17.068 Ang
siesta: k-grid: Supercell and displacements
siesta: k-grid:    6   0   0      0.500
siesta: k-grid:    0   6   0      0.500
siesta: k-grid:    0   0   6      0.500
Naive supercell factors:     5    5    5

superc: Internal auxiliary supercell:     5 x     5 x     5  =     125
superc: Number of atoms, orbitals, and projectors:   1000  13000  16000

outcell: Unit cell vectors (Ang):
        5.689310    0.022174    0.022174
        0.022174    5.689310    0.022174
        0.022174    0.022174    5.689310

outcell: Cell vector modules (Ang)   :    5.689397    5.689397    5.689397
outcell: Cell angles (23,13,12) (deg):     89.5525     89.5525     89.5525
outcell: Cell volume (Ang**3)        :    184.1447
New_DM. Step:     4
Re-using DM from previous geometry...
Re-using DM without extrapolation (not allowed)
Density Matrix sparsity pattern changed.

InitMesh: MESH =    36 x    36 x    36 =       46656
InitMesh: Mesh cutoff (required, used) =   100.000   110.669 Ry

InitMesh: MESH =    36 x    36 x    36 =       46656
InitMesh: Mesh cutoff (required, used) =   100.000   110.669 Ry

siesta: iscf   Eharris(eV)      E_KS(eV)   FreeEng(eV)   dDmax  Ef(eV)
siesta:    1     -860.9943     -861.4273     -861.4286  0.0895 -5.2669

siesta: iscf   Eharris(eV)      E_KS(eV)   FreeEng(eV)   dDmax  Ef(eV)
siesta:    1     -860.9943     -861.4273     -861.4286  0.0895 -5.2669
siesta:    2     -861.5538     -860.4901     -860.4901  0.1127 -5.1988
siesta:    2     -861.5538     -860.4901     -860.4901  0.1127 -5.1988
siesta:    3     -860.8298     -860.8847     -860.8847  0.0310 -5.2538
siesta:    3     -860.8298     -860.8847     -860.8847  0.0310 -5.2538
siesta:    4     -860.8295     -860.7408     -860.7408  0.0040 -5.2485
siesta:    4     -860.8295     -860.7408     -860.7408  0.0040 -5.2485
siesta:    5     -860.8293     -860.7636     -860.7636  0.0028 -5.2489
siesta:    5     -860.8293     -860.7636     -860.7636  0.0028 -5.2489
siesta:    6     -860.8293     -860.8108     -860.8108  0.0006 -5.2494
siesta:    6     -860.8293     -860.8108     -860.8108  0.0006 -5.2494

siesta: E_KS(eV) =             -860.8200

siesta: Atomic forces (eV/Ang):
----------------------------------------
   Tot    0.001794    0.001793    0.001794
----------------------------------------
   Max    1.057334
   Res    0.633756    sqrt( Sum f_i^2 / 3N )
----------------------------------------
   Max    1.057334    constrained

Stress-tensor-Voigt (kbar):       87.39       87.39       87.39        8.38        8.38        8.38
(Free)E + p*V (eV/cell)     -870.8637
Target enthalpy (eV/cell)     -860.8200

siesta: Stress tensor (static) (eV/Ang**3):
         0.054542    0.005228    0.005228
         0.005228    0.054542    0.005228
         0.005228    0.005228    0.054542

siesta: Pressure (static):        -87.38724334  kBar

siesta: Stress tensor (total) (eV/Ang**3):
         0.054542    0.005228    0.005228
         0.005228    0.054542    0.005228
         0.005228    0.005228    0.054542

siesta: Pressure (total):        -87.38724334  kBar

mulliken: Mulliken Atomic and Orbital Populations:

Species: Si                  
Atom  Qatom  Qorb
               3s      3s      3py     3pz     3px     3py     3pz     3px     
               3Pdxy   3Pdyz   3Pdz2   3Pdxz   3Pdx2-y2
   1  4.039   0.862   0.470   0.406   0.406   0.406   0.371   0.371   0.371
              0.093   0.093   0.050   0.093   0.050
   2  3.988   0.636   0.576   0.273   0.273   0.273   0.489   0.489   0.489
              0.117   0.117   0.070   0.117   0.070
   3  3.991   0.677   0.556   0.320   0.266   0.320   0.449   0.487   0.449
              0.107   0.114   0.071   0.114   0.060
   4  4.000   0.749   0.523   0.328   0.361   0.328   0.437   0.411   0.437
              0.107   0.101   0.055   0.101   0.062
   5  3.991   0.677   0.556   0.266   0.320   0.320   0.487   0.449   0.449
              0.114   0.114   0.063   0.107   0.068
   6  4.000   0.749   0.523   0.361   0.328   0.328   0.411   0.437   0.437
              0.101   0.101   0.060   0.107   0.057
   7  3.991   0.677   0.556   0.320   0.320   0.266   0.449   0.449   0.487
              0.114   0.107   0.063   0.114   0.068
   8  4.000   0.749   0.523   0.328   0.328   0.361   0.437   0.437   0.411
              0.101   0.107   0.060   0.101   0.057

mulliken: Qtot =       32.000

* Maximum dynamic memory allocated =    78 MB

siesta:                 ==============================
                            Begin CG move =      4
                        ==============================

outcoor: Atomic coordinates (Ang):                          
   -0.17977165   -0.17977143   -0.17977120   1       1  Si
    1.27151075    1.27151099    1.27151066   1       2  Si
    2.60310139    2.60310137   -0.20145558   1       3  Si
    4.05744787    4.05744778    1.37556068   1       4  Si
    2.60310189   -0.20145458    2.60310245   1       5  Si
    4.05744747    1.37556069    4.05744772   1       6  Si
   -0.20145421    2.60310232    2.60310279   1       7  Si
    1.37556052    4.05744721    4.05744748   1       8  Si
 Kpoints in:          108 . Kpoints trimmed:          108

siesta: k-grid: Number of k-points =   108
siesta: k-grid: Cutoff (effective) =    16.694 Ang
siesta: k-grid: Supercell and displacements
siesta: k-grid:    6   0   0      0.500
siesta: k-grid:    0   6   0      0.500
siesta: k-grid:    0   0   6      0.500
Naive supercell factors:     5    5    5

superc: Internal auxiliary supercell:     5 x     5 x     5  =     125
superc: Number of atoms, orbitals, and projectors:   1000  13000  16000

outcell: Unit cell vectors (Ang):
        5.564424    0.035318    0.035318
        0.035318    5.564424    0.035318
        0.035318    0.035318    5.564425

outcell: Cell vector modules (Ang)   :    5.564649    5.564649    5.564649
outcell: Cell angles (23,13,12) (deg):     89.2704     89.2704     89.2704
outcell: Cell volume (Ang**3)        :    172.2695
New_DM. Step:     5
Re-using DM from previous geometry...
Re-using DM without extrapolation (not allowed)
Density Matrix sparsity pattern changed.

siesta: E_KS(eV) =             -860.8200

siesta: Atomic forces (eV/Ang):
----------------------------------------
   Tot    0.001794    0.001793    0.001794
----------------------------------------
   Max    1.057334
   Res    0.633756    sqrt( Sum f_i^2 / 3N )
----------------------------------------
   Max    1.057334    constrained

Stress-tensor-Voigt (kbar):       87.39       87.39       87.39        8.38        8.38        8.38
(Free)E + p*V (eV/cell)     -870.8637
Target enthalpy (eV/cell)     -860.8200

siesta: Stress tensor (static) (eV/Ang**3):
         0.054542    0.005228    0.005228
         0.005228    0.054542    0.005228
         0.005228    0.005228    0.054542

siesta: Pressure (static):        -87.38724334  kBar

siesta: Stress tensor (total) (eV/Ang**3):
         0.054542    0.005228    0.005228
         0.005228    0.054542    0.005228
         0.005228    0.005228    0.054542

siesta: Pressure (total):        -87.38724334  kBar

mulliken: Mulliken Atomic and Orbital Populations:

Species: Si                  
Atom  Qatom  Qorb
               3s      3s      3py     3pz     3px     3py     3pz     3px     
               3Pdxy   3Pdyz   3Pdz2   3Pdxz   3Pdx2-y2
   1  4.039   0.862   0.470   0.406   0.406   0.406   0.371   0.371   0.371
              0.093   0.093   0.050   0.093   0.050
   2  3.988   0.636   0.576   0.273   0.273   0.273   0.489   0.489   0.489
              0.117   0.117   0.070   0.117   0.070
   3  3.991   0.677   0.556   0.320   0.266   0.320   0.449   0.487   0.449
              0.107   0.114   0.071   0.114   0.060
   4  4.000   0.749   0.523   0.328   0.361   0.328   0.437   0.411   0.437
              0.107   0.101   0.055   0.101   0.062
   5  3.991   0.677   0.556   0.266   0.320   0.320   0.487   0.449   0.449
              0.114   0.114   0.063   0.107   0.068
   6  4.000   0.749   0.523   0.361   0.328   0.328   0.411   0.437   0.437
              0.101   0.101   0.060   0.107   0.057
   7  3.991   0.677   0.556   0.320   0.320   0.266   0.449   0.449   0.487
              0.114   0.107   0.063   0.114   0.068
   8  4.000   0.749   0.523   0.328   0.328   0.361   0.437   0.437   0.411
              0.101   0.107   0.060   0.101   0.057

mulliken: Qtot =       32.000

* Maximum dynamic memory allocated =    78 MB

siesta:                 ==============================
                            Begin CG move =      4
                        ==============================

outcoor: Atomic coordinates (Ang):                          
   -0.17977165   -0.17977143   -0.17977120   1       1  Si
    1.27151075    1.27151099    1.27151066   1       2  Si
    2.60310139    2.60310137   -0.20145558   1       3  Si
    4.05744787    4.05744778    1.37556068   1       4  Si
    2.60310189   -0.20145458    2.60310245   1       5  Si
    4.05744747    1.37556069    4.05744772   1       6  Si
   -0.20145421    2.60310232    2.60310279   1       7  Si
    1.37556052    4.05744721    4.05744748   1       8  Si
 Kpoints in:          108 . Kpoints trimmed:          108

siesta: k-grid: Number of k-points =   108
siesta: k-grid: Cutoff (effective) =    16.694 Ang
siesta: k-grid: Supercell and displacements
siesta: k-grid:    6   0   0      0.500
siesta: k-grid:    0   6   0      0.500
siesta: k-grid:    0   0   6      0.500
Naive supercell factors:     5    5    5

superc: Internal auxiliary supercell:     5 x     5 x     5  =     125
superc: Number of atoms, orbitals, and projectors:   1000  13000  16000

outcell: Unit cell vectors (Ang):
        5.564424    0.035318    0.035318
        0.035318    5.564424    0.035318
        0.035318    0.035318    5.564425

outcell: Cell vector modules (Ang)   :    5.564649    5.564649    5.564649
outcell: Cell angles (23,13,12) (deg):     89.2704     89.2704     89.2704
outcell: Cell volume (Ang**3)        :    172.2695
New_DM. Step:     5
Re-using DM from previous geometry...
Re-using DM without extrapolation (not allowed)
Density Matrix sparsity pattern changed.

InitMesh: MESH =    36 x    36 x    36 =       46656
InitMesh: Mesh cutoff (required, used) =   100.000   115.710 Ry

InitMesh: MESH =    36 x    36 x    36 =       46656
InitMesh: Mesh cutoff (required, used) =   100.000   115.710 Ry

siesta: iscf   Eharris(eV)      E_KS(eV)   FreeEng(eV)   dDmax  Ef(eV)
siesta:    1     -861.3383     -862.5788     -862.5788  0.0654 -5.1209

siesta: iscf   Eharris(eV)      E_KS(eV)   FreeEng(eV)   dDmax  Ef(eV)
siesta:    1     -861.3383     -862.5788     -862.5788  0.0654 -5.1209
siesta:    2     -861.9389     -860.7715     -860.7718  0.1062 -5.1099
siesta:    2     -861.9389     -860.7715     -860.7718  0.1062 -5.1099
siesta:    3     -861.1505     -861.4002     -861.4012  0.0252 -5.0738
siesta:    3     -861.1505     -861.4002     -861.4012  0.0252 -5.0738
siesta:    4     -861.1497     -861.0454     -861.0459  0.0031 -5.0677
siesta:    4     -861.1497     -861.0454     -861.0459  0.0031 -5.0677
siesta:    5     -861.1496     -861.0699     -861.0704  0.0022 -5.0688
siesta:    5     -861.1496     -861.0699     -861.0704  0.0022 -5.0688
siesta:    6     -861.1496     -861.1305     -861.1311  0.0005 -5.0703
siesta:    6     -861.1496     -861.1305     -861.1311  0.0005 -5.0703

siesta: E_KS(eV) =             -861.1404

siesta: Atomic forces (eV/Ang):
----------------------------------------
   Tot   -0.002628   -0.002630   -0.002642
----------------------------------------
   Max    1.842055
   Res    0.966958    sqrt( Sum f_i^2 / 3N )
----------------------------------------
   Max    1.842055    constrained

Stress-tensor-Voigt (kbar):       41.39       41.39       41.39       27.23       27.23       27.23
(Free)E + p*V (eV/cell)     -865.5909
Target enthalpy (eV/cell)     -861.1410

siesta: Stress tensor (static) (eV/Ang**3):
         0.025831    0.016998    0.016998
         0.016998    0.025831    0.016998
         0.016998    0.016998    0.025831

siesta: Pressure (static):        -41.38699253  kBar

siesta: Stress tensor (total) (eV/Ang**3):
         0.025831    0.016998    0.016998
         0.016998    0.025831    0.016998
         0.016998    0.016998    0.025831

siesta: Pressure (total):        -41.38699253  kBar

mulliken: Mulliken Atomic and Orbital Populations:

Species: Si                  
Atom  Qatom  Qorb
               3s      3s      3py     3pz     3px     3py     3pz     3px     
               3Pdxy   3Pdyz   3Pdz2   3Pdxz   3Pdx2-y2
   1  3.992   0.731   0.529   0.297   0.297   0.297   0.463   0.463   0.463
              0.109   0.109   0.063   0.109   0.063
   2  3.992   0.686   0.550   0.276   0.276   0.276   0.484   0.484   0.484
              0.114   0.114   0.067   0.114   0.067
   3  4.004   0.647   0.570   0.275   0.248   0.275   0.492   0.509   0.492
              0.115   0.119   0.074   0.119   0.070
   4  4.002   0.661   0.563   0.274   0.267   0.274   0.491   0.494   0.491
              0.115   0.116   0.070   0.116   0.070
   5  4.004   0.647   0.570   0.248   0.275   0.275   0.509   0.492   0.492
              0.119   0.119   0.071   0.115   0.073
   6  4.002   0.661   0.563   0.267   0.274   0.274   0.494   0.491   0.491
              0.116   0.116   0.070   0.115   0.070
   7  4.004   0.647   0.570   0.275   0.275   0.248   0.492   0.492   0.509
              0.119   0.115   0.071   0.119   0.073
   8  4.002   0.661   0.563   0.274   0.274   0.267   0.491   0.491   0.494
              0.116   0.115   0.070   0.116   0.070

mulliken: Qtot =       32.000

* Maximum dynamic memory allocated =    80 MB

siesta:                 ==============================
                            Begin CG move =      5
                        ==============================

outcoor: Atomic coordinates (Ang):                          
   -0.16100430   -0.16100410   -0.16100389   1       1  Si
    1.28102741    1.28102762    1.28102732   1       2  Si
    2.61610288    2.61610286   -0.18090502   1       3  Si
    4.06079913    4.06079904    1.37389378   1       4  Si
    2.61610333   -0.18090413    2.61610383   1       5  Si
    4.06079877    1.37389379    4.06079899   1       6  Si
   -0.18090380    2.61610371    2.61610413   1       7  Si
    1.37389364    4.06079854    4.06079877   1       8  Si
 Kpoints in:          108 . Kpoints trimmed:          108

siesta: k-grid: Number of k-points =   108
siesta: k-grid: Cutoff (effective) =    16.803 Ang
siesta: k-grid: Supercell and displacements
siesta: k-grid:    6   0   0      0.500
siesta: k-grid:    0   6   0      0.500
siesta: k-grid:    0   0   6      0.500
Naive supercell factors:     5    5    5

superc: Internal auxiliary supercell:     5 x     5 x     5  =     125
superc: Number of atoms, orbitals, and projectors:   1000  13000  16000

outcell: Unit cell vectors (Ang):
        5.600989    0.031470    0.031470
        0.031470    5.600989    0.031470
        0.031470    0.031470    5.600989

outcell: Cell vector modules (Ang)   :    5.601166    5.601166    5.601166
outcell: Cell angles (23,13,12) (deg):     89.3544     89.3544     89.3544
outcell: Cell volume (Ang**3)        :    175.6925
New_DM. Step:     6
Re-using DM from previous geometry...
Re-using DM without extrapolation (not allowed)
Density Matrix sparsity pattern changed.

InitMesh: MESH =    36 x    36 x    36 =       46656
InitMesh: Mesh cutoff (required, used) =   100.000   114.198 Ry

siesta: E_KS(eV) =             -861.1404

siesta: Atomic forces (eV/Ang):
----------------------------------------
   Tot   -0.002628   -0.002630   -0.002642
----------------------------------------
   Max    1.842055
   Res    0.966958    sqrt( Sum f_i^2 / 3N )
----------------------------------------
   Max    1.842055    constrained

Stress-tensor-Voigt (kbar):       41.39       41.39       41.39       27.23       27.23       27.23
(Free)E + p*V (eV/cell)     -865.5909
Target enthalpy (eV/cell)     -861.1410

siesta: Stress tensor (static) (eV/Ang**3):
         0.025831    0.016998    0.016998
         0.016998    0.025831    0.016998
         0.016998    0.016998    0.025831

siesta: Pressure (static):        -41.38699253  kBar

siesta: Stress tensor (total) (eV/Ang**3):
         0.025831    0.016998    0.016998
         0.016998    0.025831    0.016998
         0.016998    0.016998    0.025831

siesta: Pressure (total):        -41.38699253  kBar

mulliken: Mulliken Atomic and Orbital Populations:

Species: Si                  
Atom  Qatom  Qorb
               3s      3s      3py     3pz     3px     3py     3pz     3px     
               3Pdxy   3Pdyz   3Pdz2   3Pdxz   3Pdx2-y2
   1  3.992   0.731   0.529   0.297   0.297   0.297   0.463   0.463   0.463
              0.109   0.109   0.063   0.109   0.063
   2  3.992   0.686   0.550   0.276   0.276   0.276   0.484   0.484   0.484
              0.114   0.114   0.067   0.114   0.067
   3  4.004   0.647   0.570   0.275   0.248   0.275   0.492   0.509   0.492
              0.115   0.119   0.074   0.119   0.070
   4  4.002   0.661   0.563   0.274   0.267   0.274   0.491   0.494   0.491
              0.115   0.116   0.070   0.116   0.070
   5  4.004   0.647   0.570   0.248   0.275   0.275   0.509   0.492   0.492
              0.119   0.119   0.071   0.115   0.073
   6  4.002   0.661   0.563   0.267   0.274   0.274   0.494   0.491   0.491
              0.116   0.116   0.070   0.115   0.070
   7  4.004   0.647   0.570   0.275   0.275   0.248   0.492   0.492   0.509
              0.119   0.115   0.071   0.119   0.073
   8  4.002   0.661   0.563   0.274   0.274   0.267   0.491   0.491   0.494
              0.116   0.115   0.070   0.116   0.070

mulliken: Qtot =       32.000

* Maximum dynamic memory allocated =    80 MB

siesta:                 ==============================
                            Begin CG move =      5
                        ==============================

outcoor: Atomic coordinates (Ang):                          
   -0.16100430   -0.16100410   -0.16100389   1       1  Si
    1.28102741    1.28102762    1.28102732   1       2  Si
    2.61610288    2.61610286   -0.18090502   1       3  Si
    4.06079913    4.06079904    1.37389378   1       4  Si
    2.61610333   -0.18090413    2.61610383   1       5  Si
    4.06079877    1.37389379    4.06079899   1       6  Si
   -0.18090380    2.61610371    2.61610413   1       7  Si
    1.37389364    4.06079854    4.06079877   1       8  Si
 Kpoints in:          108 . Kpoints trimmed:          108

siesta: k-grid: Number of k-points =   108
siesta: k-grid: Cutoff (effective) =    16.803 Ang
siesta: k-grid: Supercell and displacements
siesta: k-grid:    6   0   0      0.500
siesta: k-grid:    0   6   0      0.500
siesta: k-grid:    0   0   6      0.500
Naive supercell factors:     5    5    5

superc: Internal auxiliary supercell:     5 x     5 x     5  =     125
superc: Number of atoms, orbitals, and projectors:   1000  13000  16000

outcell: Unit cell vectors (Ang):
        5.600989    0.031470    0.031470
        0.031470    5.600989    0.031470
        0.031470    0.031470    5.600989

outcell: Cell vector modules (Ang)   :    5.601166    5.601166    5.601166
outcell: Cell angles (23,13,12) (deg):     89.3544     89.3544     89.3544
outcell: Cell volume (Ang**3)        :    175.6925
New_DM. Step:     6
Re-using DM from previous geometry...
Re-using DM without extrapolation (not allowed)
Density Matrix sparsity pattern changed.

InitMesh: MESH =    36 x    36 x    36 =       46656
InitMesh: Mesh cutoff (required, used) =   100.000   114.198 Ry

siesta: iscf   Eharris(eV)      E_KS(eV)   FreeEng(eV)   dDmax  Ef(eV)
siesta:    1     -861.2250     -860.6621     -860.6626  0.0174 -5.0866

siesta: iscf   Eharris(eV)      E_KS(eV)   FreeEng(eV)   dDmax  Ef(eV)
siesta:    1     -861.2250     -860.6621     -860.6626  0.0174 -5.0866
siesta:    2     -861.2849     -861.1702     -861.1702  0.0366 -5.1267
siesta:    2     -861.2849     -861.1702     -861.1702  0.0366 -5.1267
siesta:    3     -861.2072     -861.0469     -861.0469  0.0073 -5.0998
siesta:    3     -861.2072     -861.0469     -861.0469  0.0073 -5.0998
siesta:    4     -861.2071     -861.1950     -861.1950  0.0006 -5.1006
siesta:    4     -861.2071     -861.1950     -861.1950  0.0006 -5.1006

siesta: E_KS(eV) =             -861.1991

siesta: Atomic forces (eV/Ang):
----------------------------------------
   Tot    0.003329    0.003325    0.003316
----------------------------------------
   Max    1.629796
   Res    0.797837    sqrt( Sum f_i^2 / 3N )
----------------------------------------
   Max    1.629796    constrained

Stress-tensor-Voigt (kbar):       58.05       58.05       58.05       20.27       20.27       20.27
(Free)E + p*V (eV/cell)     -867.5651
Target enthalpy (eV/cell)     -861.1991

siesta: Stress tensor (static) (eV/Ang**3):
         0.036234    0.012649    0.012649
         0.012649    0.036234    0.012649
         0.012649    0.012649    0.036234

siesta: Pressure (static):        -58.05366066  kBar

siesta: Stress tensor (total) (eV/Ang**3):
         0.036234    0.012649    0.012649
         0.012649    0.036234    0.012649
         0.012649    0.012649    0.036234

siesta: Pressure (total):        -58.05366066  kBar

mulliken: Mulliken Atomic and Orbital Populations:

Species: Si                  
Atom  Qatom  Qorb
               3s      3s      3py     3pz     3px     3py     3pz     3px     
               3Pdxy   3Pdyz   3Pdz2   3Pdxz   3Pdx2-y2
   1  4.004   0.771   0.510   0.328   0.328   0.328   0.437   0.437   0.437
              0.104   0.104   0.059   0.104   0.059
   2  3.996   0.674   0.556   0.280   0.280   0.280   0.482   0.482   0.482
              0.114   0.114   0.068   0.114   0.068
   3  4.001   0.657   0.565   0.289   0.256   0.289   0.479   0.501   0.479
              0.113   0.117   0.073   0.117   0.066
   4  3.999   0.687   0.550   0.290   0.295   0.290   0.474   0.469   0.474
              0.112   0.112   0.065   0.112   0.068
   5  4.001   0.657   0.565   0.256   0.289   0.289   0.501   0.479   0.479
              0.117   0.117   0.068   0.113   0.071
   6  3.999   0.687   0.550   0.295   0.290   0.290   0.469   0.474   0.474
              0.112   0.112   0.067   0.112   0.066
   7  4.001   0.657   0.565   0.289   0.289   0.256   0.479   0.479   0.501
              0.117   0.113   0.068   0.117   0.071
   8  3.999   0.687   0.550   0.290   0.290   0.295   0.474   0.474   0.469
              0.112   0.112   0.067   0.112   0.066

mulliken: Qtot =       32.000

cgvc: Finished line minimization    1.  Mean atomic displacement =    0.1734

* Maximum dynamic memory allocated =    82 MB

siesta:                 ==============================
                            Begin CG move =      6
                        ==============================

outcoor: Atomic coordinates (Ang):                          
   -0.17489780   -0.17489758   -0.17489759   1       1  Si
    1.20857490    1.20857506    1.20857478   1       2  Si
    2.58171492    2.58171493   -0.18041052   1       3  Si
    3.96919394    3.96919367    1.24409905   1       4  Si
    2.58171571   -0.18040968    2.58171513   1       5  Si
    3.96919352    1.24409850    3.96919369   1       6  Si
   -0.18040950    2.58171620    2.58171552   1       7  Si
    1.24409841    3.96919321    3.96919365   1       8  Si
 Kpoints in:          108 . Kpoints trimmed:          108

siesta: k-grid: Number of k-points =   108
siesta: k-grid: Cutoff (effective) =    16.428 Ang
siesta: k-grid: Supercell and displacements
siesta: k-grid:    0   6   0      0.500
siesta: k-grid:    6   0   0      0.500
siesta: k-grid:    0   0   6      0.500
Naive supercell factors:     5    5    5

superc: Internal auxiliary supercell:     5 x     5 x     5  =     125
superc: Number of atoms, orbitals, and projectors:   1000  13000  16000

outcell: Unit cell vectors (Ang):
        5.476103    0.009360    0.009359
        0.009360    5.476103    0.009360
        0.009359    0.009360    5.476103

outcell: Cell vector modules (Ang)   :    5.476119    5.476119    5.476119
outcell: Cell angles (23,13,12) (deg):     89.8040     89.8040     89.8040
outcell: Cell volume (Ang**3)        :    164.2143
New_DM. Step:     7
Re-using DM from previous geometry...
Re-using DM without extrapolation (not allowed)
Density Matrix sparsity pattern changed.

siesta: E_KS(eV) =             -861.1991

siesta: Atomic forces (eV/Ang):
----------------------------------------
   Tot    0.003329    0.003325    0.003316
----------------------------------------
   Max    1.629796
   Res    0.797837    sqrt( Sum f_i^2 / 3N )
----------------------------------------
[...]
         10.41  10.98  11.05  11.30  11.45  11.75  12.02  12.43  13.02  13.33
         14.09  14.29  14.52  14.63  14.69  15.71  16.18  16.42  16.47  17.16
         17.70  17.84  18.71  18.90  19.46  20.80  21.88  22.28  23.26  23.43
         23.82  24.01  24.79  25.18  26.44  26.59  32.97  37.70  38.97  41.16
         44.18  54.33  54.50  56.85  58.49  64.11  65.80  67.74  68.01  69.24
         73.40  86.59  89.21  90.83
  93  1 -16.57 -15.89 -14.72 -14.37 -12.51 -12.11 -10.68  -9.95  -9.68  -9.63
         -8.57  -8.33  -8.12  -7.86  -7.61  -6.66  -3.53  -3.51  -3.04  -2.40
         -2.17  -1.87  -1.86  -1.06  -1.05  -0.86  -0.65  -0.53   0.45   0.47
          1.11   1.90   1.92   1.96   2.53   3.46   3.91   3.96   4.58   5.56
          5.66   5.67   7.48   7.80   8.19   8.46   8.91   9.24   9.47  10.15
         10.41  10.99  11.05  11.30  11.46  11.74  12.02  12.44  13.02  13.34
         14.09  14.30  14.53  14.63  14.69  15.69  16.17  16.42  16.47  17.16
         17.70  17.84  18.71  18.90  19.46  20.80  21.88  22.29  23.26  23.43
         23.82  24.01  24.80  25.17  26.44  26.58  32.93  37.70  38.97  41.19
         44.10  54.37  54.56  56.90  58.50  64.07  65.79  67.71  67.98  69.23
         73.37  86.57  89.19  90.86
  94  1 -16.36 -15.72 -14.79 -14.79 -12.44 -12.44 -11.38 -10.57  -9.18  -9.18
         -8.14  -7.84  -7.84  -7.52  -7.00  -6.97  -3.64  -3.42  -3.27  -3.27
         -2.32  -1.68  -1.68  -1.51  -1.38  -0.68  -0.52   0.33   0.33   0.45
          0.70   0.70   2.73   2.73   3.22   3.24   4.77   4.90   5.05   5.31
          5.38   5.38   6.43   6.43   7.22   8.15   8.77   9.15   9.15   9.17
          9.31   9.31  11.11  11.44  11.44  11.78  13.09  13.31  13.52  13.52
         13.65  14.76  15.02  15.03  16.21  16.21  16.67  16.70  17.28  17.47
         17.47  17.89  17.89  19.26  19.26  19.27  20.87  22.24  22.39  23.99
         24.59  24.59  25.42  27.40  28.09  28.09  32.60  33.51  36.42  36.42
         41.71  49.38  56.17  56.18  57.15  62.15  64.52  68.82  68.83  69.95
         81.48  86.86  86.86  94.85
  95  1 -15.95 -15.40 -15.40 -15.03 -12.47 -12.07 -12.07 -11.43  -8.70  -8.27
         -8.27  -7.55  -7.28  -7.25  -7.25  -6.68  -3.53  -3.48  -3.09  -3.09
         -2.39  -2.39  -2.03  -1.99  -1.54  -1.18  -1.04  -1.04   1.23   1.23
          2.02   2.20   2.42   3.04   3.42   3.88   3.88   4.25   4.25   4.48
          5.13   6.93   6.93   7.12   7.12   7.66   8.00   8.60   8.81   8.81
          8.95   9.25   9.32  10.09  10.53  10.53  13.86  14.10  14.10  15.09
         15.09  15.14  15.60  15.86  15.89  15.98  16.57  16.57  17.75  18.41
         18.46  18.46  19.06  19.06  19.41  19.89  20.58  20.58  21.27  21.96
         26.99  27.23  27.23  28.95  29.10  32.54  32.54  34.63  39.94  41.68
         41.68  48.12  55.70  55.71  58.46  59.50  64.78  76.53  76.53  80.98
         81.89  81.90  90.42  93.63
  96  1 -15.96 -15.40 -15.39 -15.03 -12.47 -12.07 -12.07 -11.43  -8.70  -8.27
         -8.27  -7.55  -7.28  -7.25  -7.25  -6.68  -3.52  -3.47  -3.09  -3.09
         -2.40  -2.39  -2.02  -1.99  -1.55  -1.18  -1.04  -1.04   1.22   1.22
          2.02   2.21   2.40   3.05   3.43   3.88   3.88   4.25   4.25   4.49
          5.12   6.93   6.93   7.13   7.14   7.66   7.99   8.61   8.81   8.81
          8.95   9.24   9.30  10.09  10.52  10.53  13.86  14.09  14.10  15.09
         15.10  15.14  15.60  15.85  15.89  15.98  16.58  16.59  17.75  18.41
         18.46  18.46  19.07  19.08  19.41  19.89  20.58  20.58  21.27  21.94
         27.00  27.22  27.24  28.96  29.10  32.54  32.54  34.65  39.94  41.68
         41.69  48.14  55.67  55.69  58.51  59.53  64.88  76.58  76.59  80.94
         81.87  81.92  90.39  93.82
  97  1 -15.96 -15.40 -15.40 -15.03 -12.47 -12.07 -12.07 -11.43  -8.70  -8.27
         -8.27  -7.54  -7.29  -7.25  -7.25  -6.68  -3.52  -3.48  -3.08  -3.08
         -2.39  -2.39  -2.03  -1.99  -1.55  -1.18  -1.04  -1.04   1.22   1.22
          2.02   2.20   2.41   3.05   3.43   3.88   3.88   4.25   4.25   4.49
          5.13   6.94   6.94   7.12   7.12   7.65   8.00   8.61   8.81   8.81
          8.95   9.23   9.31  10.08  10.52  10.52  13.85  14.09  14.09  15.09
         15.09  15.15  15.60  15.86  15.89  15.99  16.59  16.59  17.76  18.41
         18.46  18.46  19.06  19.06  19.41  19.89  20.59  20.59  21.27  21.95
         26.99  27.24  27.24  28.97  29.10  32.57  32.57  34.64  39.93  41.69
         41.69  48.09  55.77  55.78  58.45  59.51  64.85  76.59  76.60  81.01
         81.90  81.91  90.38  93.72
  98  1 -16.13 -15.51 -15.51 -14.97 -12.01 -11.38 -11.38 -10.57  -9.73  -9.22
         -9.22  -8.61  -7.41  -7.34  -7.34  -6.61  -3.63  -2.90  -2.68  -2.68
         -2.01  -2.01  -1.62  -1.42  -0.32  -0.32  -0.28  -0.14   0.23   0.23
          0.52   0.97   1.56   1.93   2.33   2.58   2.58   4.08   4.08   5.18
          5.76   7.67   7.67   7.97   8.55   8.55   9.38   9.55   9.77   9.90
          9.90  10.60  11.11  11.65  11.65  12.06  12.70  12.87  12.94  12.94
         13.54  13.75  13.75  14.51  15.01  15.26  15.26  15.50  17.60  18.43
         18.43  19.23  20.03  20.03  20.49  20.51  21.76  21.76  21.95  22.48
         25.42  26.04  26.21  26.22  27.97  36.06  36.06  41.21  44.80  44.80
         51.19  51.57  54.44  54.44  59.81  61.57  63.27  69.96  69.97  81.49
         81.49  82.56  85.07  88.04
  99  1 -16.13 -15.51 -15.51 -14.97 -12.01 -11.38 -11.38 -10.57  -9.73  -9.22
         -9.22  -8.61  -7.41  -7.34  -7.34  -6.61  -3.63  -2.91  -2.68  -2.68
         -2.02  -2.02  -1.62  -1.43  -0.31  -0.31  -0.28  -0.13   0.23   0.23
          0.53   0.97   1.55   1.92   2.33   2.58   2.58   4.08   4.08   5.17
          5.76   7.67   7.68   7.97   8.55   8.55   9.38   9.56   9.78   9.89
          9.89  10.60  11.10  11.66  11.66  12.07  12.70  12.88  12.96  12.96
         13.55  13.75  13.75  14.51  15.01  15.25  15.25  15.49  17.60  18.43
         18.43  19.22  20.03  20.03  20.49  20.50  21.75  21.75  21.95  22.48
         25.42  26.04  26.21  26.21  27.96  36.05  36.05  41.21  44.76  44.76
         51.18  51.55  54.44  54.44  59.80  61.61  63.24  69.88  69.88  81.48
         81.48  82.54  85.08  88.04
 100  1 -15.95 -15.40 -15.40 -15.03 -12.47 -12.07 -12.07 -11.43  -8.70  -8.27
         -8.27  -7.55  -7.28  -7.25  -7.25  -6.68  -3.53  -3.48  -3.09  -3.09
         -2.39  -2.39  -2.03  -1.99  -1.54  -1.18  -1.04  -1.04   1.23   1.23
          2.02   2.20   2.42   3.04   3.42   3.88   3.88   4.25   4.25   4.48
          5.13   6.93   6.93   7.12   7.12   7.66   8.00   8.60   8.81   8.81
          8.95   9.25   9.32  10.09  10.53  10.53  13.86  14.10  14.10  15.09
         15.09  15.14  15.60  15.86  15.89  15.98  16.57  16.57  17.75  18.41
         18.46  18.46  19.06  19.06  19.41  19.89  20.58  20.58  21.27  21.96
         26.99  27.23  27.23  28.95  29.10  32.54  32.54  34.63  39.94  41.68
         41.68  48.12  55.70  55.71  58.46  59.50  64.78  76.53  76.53  80.98
         81.89  81.90  90.42  93.64
 101  1 -15.63 -15.27 -15.27 -15.27 -12.58 -12.58 -12.58 -12.17  -7.48  -7.48
         -7.48  -7.07  -7.07  -7.07  -6.84  -6.84  -4.16  -3.68  -3.68  -3.68
         -2.30  -2.30  -2.30  -2.17  -2.17  -1.87  -1.87  -1.87   2.72   2.72
          2.72   3.11   4.00   4.00   4.04   4.04   4.04   5.02   5.32   5.32
          5.32   6.11   6.11   6.11   6.24   6.25   6.25   7.69   7.69   7.90
          7.90   7.90   8.71   8.71   8.71   8.77  15.98  15.98  15.98  16.06
         16.53  16.53  16.77  16.77  16.77  17.41  17.41  17.41  18.18  18.18
         18.18  19.04  19.04  19.04  19.47  19.47  19.47  20.08  20.08  22.01
         28.45  28.45  28.45  29.93  29.93  30.08  30.08  30.08  52.01  52.02
         52.02  56.81  61.49  61.49  61.52  71.90  71.91  71.91  73.54  73.54
         87.37  87.37  87.38 102.77
 102  1 -15.63 -15.27 -15.27 -15.26 -12.58 -12.58 -12.58 -12.17  -7.49  -7.48
         -7.48  -7.07  -7.07  -7.07  -6.84  -6.84  -4.15  -3.68  -3.68  -3.67
         -2.31  -2.30  -2.30  -2.17  -2.16  -1.87  -1.87  -1.87   2.71   2.71
          2.71   3.11   3.99   4.00   4.04   4.04   4.04   5.02   5.33   5.33
          5.33   6.12   6.12   6.12   6.25   6.25   6.25   7.68   7.69   7.90
          7.90   7.90   8.70   8.70   8.71   8.76  15.98  15.98  15.99  16.05
         16.52  16.53  16.76  16.76  16.77  17.42  17.42  17.42  18.19  18.19
         18.21  19.03  19.04  19.04  19.47  19.47  19.47  20.08  20.08  21.98
         28.45  28.47  28.47  29.93  29.95  30.06  30.07  30.07  51.98  52.03
         52.03  56.80  61.45  61.57  61.58  71.84  71.84  71.89  73.64  73.79
         87.43  87.44  87.46 102.85
 103  1 -15.96 -15.40 -15.39 -15.03 -12.47 -12.07 -12.07 -11.43  -8.70  -8.27
         -8.27  -7.55  -7.28  -7.25  -7.25  -6.68  -3.52  -3.47  -3.09  -3.09
         -2.40  -2.39  -2.02  -1.99  -1.55  -1.18  -1.04  -1.04   1.22   1.22
          2.02   2.21   2.40   3.05   3.43   3.88   3.88   4.25   4.25   4.49
          5.12   6.93   6.93   7.13   7.14   7.66   7.99   8.61   8.81   8.81
          8.95   9.24   9.30  10.09  10.52  10.53  13.86  14.09  14.10  15.09
         15.10  15.14  15.60  15.85  15.89  15.98  16.58  16.59  17.75  18.41
         18.46  18.46  19.07  19.08  19.41  19.89  20.58  20.58  21.27  21.94
         27.00  27.22  27.24  28.96  29.10  32.54  32.54  34.65  39.94  41.68
         41.69  48.14  55.67  55.69  58.51  59.53  64.88  76.58  76.59  80.94
         81.87  81.92  90.39  93.82
 104  1 -16.14 -15.50 -15.50 -14.97 -12.01 -11.38 -11.38 -10.57  -9.73  -9.22
         -9.22  -8.61  -7.41  -7.35  -7.35  -6.61  -3.63  -2.90  -2.68  -2.68
         -2.02  -2.01  -1.61  -1.42  -0.32  -0.32  -0.28  -0.13   0.23   0.23
          0.53   0.98   1.56   1.93   2.32   2.57   2.58   4.09   4.09   5.17
          5.75   7.68   7.69   7.97   8.54   8.55   9.37   9.55   9.77   9.89
          9.90  10.60  11.11  11.66  11.66  12.06  12.70  12.88  12.95  12.95
         13.55  13.75  13.75  14.50  15.01  15.26  15.26  15.49  17.59  18.43
         18.43  19.23  20.04  20.04  20.48  20.52  21.75  21.75  21.96  22.47
         25.43  26.04  26.21  26.21  27.97  36.06  36.06  41.21  44.76  44.77
         51.25  51.56  54.37  54.38  59.84  61.56  63.33  69.94  69.96  81.48
         81.50  82.51  85.06  88.01
 105  1 -16.14 -15.50 -15.50 -14.97 -12.01 -11.38 -11.38 -10.57  -9.73  -9.22
         -9.22  -8.61  -7.41  -7.35  -7.35  -6.61  -3.63  -2.90  -2.68  -2.68
         -2.02  -2.01  -1.61  -1.42  -0.32  -0.32  -0.28  -0.13   0.23   0.23
          0.53   0.98   1.56   1.93   2.32   2.57   2.58   4.09   4.09   5.17
          5.75   7.68   7.69   7.97   8.54   8.55   9.37   9.55   9.77   9.89
          9.90  10.60  11.11  11.66  11.66  12.06  12.70  12.88  12.95  12.95
         13.55  13.75  13.75  14.50  15.01  15.26  15.26  15.49  17.59  18.43
         18.43  19.23  20.04  20.04  20.48  20.52  21.75  21.75  21.96  22.47
         25.43  26.04  26.21  26.21  27.97  36.06  36.06  41.21  44.76  44.77
         51.25  51.56  54.37  54.38  59.84  61.56  63.33  69.94  69.96  81.48
         81.50  82.51  85.06  88.01
 106  1 -15.96 -15.40 -15.39 -15.03 -12.47 -12.07 -12.07 -11.43  -8.70  -8.27
         -8.27  -7.55  -7.28  -7.25  -7.25  -6.68  -3.52  -3.47  -3.09  -3.09
         -2.40  -2.39  -2.02  -1.99  -1.55  -1.18  -1.04  -1.04   1.22   1.22
          2.02   2.21   2.40   3.05   3.43   3.88   3.88   4.25   4.25   4.49
          5.12   6.93   6.93   7.13   7.14   7.66   7.99   8.61   8.81   8.81
          8.95   9.24   9.30  10.09  10.52  10.53  13.86  14.09  14.10  15.09
         15.10  15.14  15.60  15.85  15.89  15.98  16.58  16.59  17.75  18.41
         18.46  18.46  19.07  19.08  19.41  19.89  20.58  20.58  21.27  21.94
         27.00  27.22  27.24  28.96  29.10  32.54  32.54  34.65  39.94  41.68
         41.69  48.14  55.67  55.69  58.51  59.53  64.88  76.58  76.59  80.94
         81.87  81.92  90.39  93.82
 107  1 -15.63 -15.27 -15.27 -15.26 -12.58 -12.58 -12.58 -12.17  -7.49  -7.48
         -7.48  -7.07  -7.07  -7.07  -6.84  -6.84  -4.15  -3.68  -3.68  -3.67
         -2.31  -2.30  -2.30  -2.17  -2.16  -1.87  -1.87  -1.87   2.71   2.71
          2.71   3.11   3.99   4.00   4.04   4.04   4.04   5.02   5.33   5.33
          5.33   6.12   6.12   6.12   6.25   6.25   6.25   7.68   7.69   7.90
          7.90   7.90   8.70   8.70   8.71   8.76  15.98  15.98  15.99  16.05
         16.52  16.53  16.76  16.76  16.77  17.42  17.42  17.42  18.19  18.19
         18.21  19.03  19.04  19.04  19.47  19.47  19.47  20.08  20.08  21.98
         28.45  28.47  28.47  29.93  29.95  30.06  30.07  30.07  51.98  52.03
         52.03  56.80  61.45  61.57  61.58  71.84  71.84  71.89  73.64  73.79
         87.43  87.44  87.46 102.85
 108  1 -15.63 -15.27 -15.27 -15.26 -12.58 -12.58 -12.58 -12.17  -7.49  -7.48
         -7.48  -7.07  -7.07  -7.07  -6.84  -6.84  -4.15  -3.68  -3.68  -3.67
         -2.31  -2.30  -2.30  -2.17  -2.16  -1.87  -1.87  -1.87   2.71   2.71
          2.71   3.11   3.99   4.00   4.04   4.04   4.04   5.02   5.33   5.33
          5.33   6.12   6.12   6.12   6.25   6.25   6.25   7.68   7.69   7.90
          7.90   7.90   8.70   8.70   8.71   8.76  15.98  15.98  15.99  16.05
         16.52  16.53  16.76  16.76  16.77  17.42  17.42  17.42  18.19  18.19
         18.21  19.03  19.04  19.04  19.47  19.47  19.47  20.08  20.08  21.98
         28.45  28.47  28.47  29.93  29.95  30.06  30.07  30.07  51.98  52.03
         52.03  56.80  61.45  61.57  61.58  71.84  71.84  71.89  73.64  73.79
         87.43  87.44  87.46 102.85
siesta: Fermi energy =      -5.337483 eV

siesta: Program's energy decomposition (eV):
siesta: Ebs     =      -344.144137
siesta: Eions   =      1510.441798
siesta: Ena     =       465.303914
siesta: Ekin    =       325.073377
siesta: Enl     =       110.989956
siesta: DEna    =         5.137261
siesta: DUscf   =         1.526978
siesta: DUext   =         0.000000
siesta: Exc     =      -259.561690
siesta: eta*DQ  =         0.000000
siesta: Emadel  =         0.000000
siesta: Emeta   =         0.000000
siesta: Emolmec =         0.000000
siesta: Ekinion =         0.000000
siesta: Eharris =      -861.971849
siesta: Etot    =      -861.972002
siesta: FreeEng =      -861.972002

siesta: Final energy (eV):
siesta:  Band Struct. =    -344.144137
siesta:       Kinetic =     325.073377
siesta:       Hartree =      57.864754
siesta:    Ext. field =       0.000000
siesta:   Exch.-corr. =    -259.561690
siesta:  Ion-electron =    -446.514626
siesta:       Ion-ion =    -538.833817
siesta:       Ekinion =       0.000000
siesta:         Total =    -861.972002

siesta: Stress tensor (static) (eV/Ang**3):
siesta:     0.000215   -0.000213   -0.000213
siesta:    -0.000213    0.000215   -0.000213
siesta:    -0.000213   -0.000213    0.000215

siesta: Constrained stress tensor (static) (eV/Ang**3):
siesta:     0.000215   -0.000213   -0.000213
siesta:    -0.000213    0.000215   -0.000213
siesta:    -0.000213   -0.000213    0.000215

siesta: Cell volume =        161.186889 Ang**3

siesta: Pressure (static):
siesta:                Solid            Molecule  Units
siesta:          -0.00000234         -0.00000430  Ry/Bohr**3
siesta:          -0.00021477         -0.00039442  eV/Ang**3
siesta:          -0.34409774         -0.63193326  kBar
(Free)E+ p_basis*V_orbitals  =        -852.998399
(Free)Eharris+ p_basis*V_orbitals  =        -853.009994

* Maximum dynamic memory allocated : Node    0 =    94 MB

* Maximum memory occured during init_pulay_arrrays            

timer: CPU execution times:
timer:  Routine       Calls   Time/call    Tot.time        %
timer:  siesta            1    1453.343    1453.343   100.00
timer:  Setup             1       0.108       0.108     0.01
timer:  bands             3       0.571       1.712     0.12
timer:  writewave         3       0.007       0.020     0.00
timer:  KSV_init          1       0.000       0.000     0.00
timer:  IterMD           15      96.760    1451.407    99.87
timer:  hsparse          15       0.192       2.880     0.20
timer:  overlap          15       0.116       1.736     0.12
timer:  IterSCF          83      14.535    1206.367    83.01
timer:  kinefsm          30       0.118       3.537     0.24
timer:  nlefsm           30       4.016     120.467     8.29
timer:  DHSCF            98       8.423     825.408    56.79
timer:  DHSCF1           15       0.050       0.756     0.05
timer:  DHSCF2           15       2.066      30.990     2.13
timer:  REORD           618       0.000       0.072     0.00
timer:  POISON          113       0.005       0.572     0.04
timer:  DHSCF3           98       7.494     734.390    50.53
timer:  rhoofd           98       3.451     338.193    23.27
timer:  cellXC           98       0.012       1.225     0.08
timer:  vmat             98       4.024     394.321    27.13
timer:  MolMec           30       0.000       0.000     0.00
timer:  diagon           83       5.925     491.743    33.84
timer:  c-eigval       9065       0.016     148.989    10.25
timer:  c-buildHS      9065       0.012     106.635     7.34
timer:  cdiag         18030       0.007     129.617     8.92
timer:  cdiag1        18030       0.001       9.911     0.68
timer:  cdiag2        18030       0.002      33.379     2.30
timer:  cdiag3        18030       0.005      83.183     5.72
timer:  cdiag4        18030       0.000       2.540     0.17
timer:  c-eigvec       8965       0.022     193.172    13.29
timer:  c-buildD       8964       0.017     150.454    10.35
timer:  DHSCF4           15       3.949      59.236     4.08
timer:  dfscf            15       3.793      56.895     3.91
timer:  overfsm          15       0.120       1.804     0.12
timer:  optical           1       0.000       0.000     0.00
  

elaps: ELAPSED times:
elaps:  Routine       Calls   Time/call    Tot.time        %
elaps:  siesta            1    1462.953    1462.953   100.00
elaps:  Setup             1       0.108       0.108     0.01
elaps:  bands             3       0.574       1.722     0.12
elaps:  writewave         3       0.007       0.022     0.00
elaps:  KSV_init          1       0.000       0.000     0.00
elaps:  IterMD           15      97.401    1461.008    99.87
elaps:  hsparse          15       0.193       2.891     0.20
elaps:  overlap          15       0.116       1.738     0.12
elaps:  IterSCF          83      14.628    1214.164    82.99
elaps:  kinefsm          30       0.118       3.541     0.24
elaps:  nlefsm           30       4.039     121.170     8.28
elaps:  DHSCF            98       8.482     831.201    56.82
elaps:  DHSCF1           15       0.050       0.745     0.05
elaps:  DHSCF2           15       2.075      31.132     2.13
elaps:  REORD           618       0.000       0.059     0.00
elaps:  POISON          113       0.005       0.565     0.04
elaps:  DHSCF3           98       7.547     739.605    50.56
elaps:  rhoofd           98       3.475     340.584    23.28
elaps:  cellXC           98       0.013       1.246     0.09
elaps:  vmat             98       4.052     397.137    27.15
elaps:  MolMec           30       0.000       0.000     0.00
elaps:  diagon           83       5.961     494.760    33.82
elaps:  c-eigval       9065       0.017     149.856    10.24
elaps:  c-buildHS      9065       0.012     107.591     7.35
elaps:  cdiag         18030       0.007     130.261     8.90
elaps:  cdiag1        18030       0.001       9.546     0.65
elaps:  cdiag2        18030       0.002      34.059     2.33
elaps:  cdiag3        18030       0.005      83.476     5.71
elaps:  cdiag4        18030       0.000       2.649     0.18
elaps:  c-eigvec       8965       0.022     194.529    13.30
elaps:  c-buildD       8964       0.017     151.263    10.34
elaps:  DHSCF4           15       3.980      59.694     4.08
elaps:  dfscf            15       3.823      57.346     3.92
elaps:  overfsm          15       0.121       1.814     0.12
elaps:  optical           1       0.000       0.000     0.00
  
>> End of run:   9-MAY-2013  19:18:49
