
#FDF: Opened INPUT_TMP.29002      for input. Unit: 12

fdf-debug              0     # Default value
SystemName     silicon                                                                                                                             
SystemLabel     si                                                                                                                                  
XML.Write              T     # Default value
Write.XML              T     # Default value
XML.AbortOnErrors              F     # Default value
XML.AbortOnWarnings              F     # Default value
alloc_report_level              0     # Default value
xc.functional     GGA                                                                                                                                 
xc.authors     PBE                                                                                                                                 
MM.Cutoff          30.00000000     Bohr     # Default value
MM.UnitsEnergy     eV     # Default value
MM.UnitsDistance     Ang     # Default value
WriteIonPlotFiles              F     # Default value
Atom.Debug.KB.Generation              F     # Default value
user-basis              F     # Default value
user-basis-netcdf              F     # Default value
ReparametrizePseudos              F     # Default value
Restricted.Radial.Grid              T     # Default value
Rmax.Radial.Grid          0.000000000         # Default value
PAO.BasisSize     DZP                                                                                                                                 
PAO.BasisType     split                                                                                                                               
PAO.SoftDefault              F     # Default value
PAO.SoftInnerRadius         0.9000000000         # Default value
PAO.SoftPotential          40.00000000         # Default value
PAO.SplitNorm         0.1500000000         # Default value
PAO.SplitNormH         -1.000000000         # Default value
Number_of_species                        1

%block ChemicalSpeciesLabel                                                    
1 14 Si                                                                        
%endblock ChemicalSpeciesLabel                                                 

FilterCutoff          0.000000000     Ry     # Default value
FilterTol          0.000000000     Ry     # Default value
KB.Rmax          6.000000000     Bohr     # Default value
PAO.EnergyShift         0.3674899422E-02         Ry
# Above item originally: PAO.EnergyShift          50.00000000     meV       
PAO.SplitTailNorm              F     # Default value
PAO.FixSplitTable              F     # Default value
PAO.NewSplitCode              F     # Default value
PAO.Filter              F     # Default value
PAO.Keep.Findp.Bug              F     # Default value
PAO.Filter              F     # Default value
PAO.Filter              F     # Default value
PAO.Filter              F     # Default value
PAO.OldStylePolorbs              T     # Default value
PAO.SplitTailNorm              F     # Default value
PAO.FixSplitTable              F     # Default value
PAO.NewSplitCode              F     # Default value
PAO.Filter              F     # Default value
Vna.Filter              F     # Default value
PCC.Filter              F     # Default value
PAO.BasisType     split                                                                                                                               
Atom-Setup-Only              F     # Default value
UseStructFile              F     # Default value
MD.UseStructFile              F     # Default value
LatticeConstant          10.58247052           Bohr
# Above item originally: LatticeConstant          5.600000000     Ang       
AtomicCoordinatesFormat     NotScaledCartesianAng                                                                                                               
NumberOfAtoms                        8
ZM.UnitsLength     Bohr           # Default value
ZM.UnitsAngle     rad            # Default value
ZM.ForceTolLength         0.1555740000E-02 Ry/Bohr     # Default value
ZM.ForceTolAngle         0.3565490000E-02 Ry/rad     # Default value
ZM.MaxDisplLength         0.2000000000     Bohr     # Default value
ZM.MaxDisplAngle         0.3000000000E-02 rad     # Default value
ZM.CalcAllForces              F     # Default value

%block AtomicCoordinatesAndAtomicSpecies                                       
	0.00000000	0.00000000	0.00000000  1 Si  1                                     
	1.36000000	1.36000000	1.36000000  1 Si  2                                     
	2.72000000	2.72000000	0.00000000  1 Si  3                                     
	4.08000000	4.08000000	1.36000000  1 Si  4                                     
	2.72000000	0.00000000	2.72000000  1 Si  5                                     
	4.08000000	1.36000000	4.08000000  1 Si  6                                     
	0.00000000	2.72000000	2.72000000  1 Si  7                                     
	1.36000000	4.08000000	4.08000000  1 Si  8                                     
%endblock AtomicCoordinatesAndAtomicSpecies                                    

UseSaveData              F     # Default value
MD.UseSaveXV              F     # Default value
MD.UseSaveZM              F     # Default value
WriteCoorInitial              T     # Default value
MD.TypeOfRun     CG                                                                                                                                  
MaxBondDistance          6.000000000     Bohr     # Default value
Output-Structure-Only              F     # Default value
SpinPolarized              F
NonCollinearSpin              F     # Default value
LongOutput              F     # Default value
WriteDenchar              F     # Default value
WriteMullikenPop                        1
WriteHirshfeldPop              F     # Default value
WriteVoronoiPop              F     # Default value
PartialChargesAtEveryGeometry              F     # Default value
PartialChargesAtEveryScfStep              F     # Default value
MeshCutoff          100.0000000             Ry
# Above item originally: MeshCutoff          100.0000000     Ry        
NetCharge          0.000000000         # Default value
MaxSCFIterations             50     # Default value
SCFMustConverge              F     # Default value
DM.NumberPulay                        3
DM.NumberBroyden              0     # Default value
DM.FIRE.Mixing              F     # Default value
DM.MixSCF1              F     # Default value
DM.PulayOnFile              F     # Default value
DM.Pulay.Avoid.First.After.Kick              F     # Default value
DM.MixingWeight         0.3000000000    
DM.OccupancyTolerance         0.1000000000E-11     # Default value
DM.NumberKick              0     # Default value
DM.KickMixingWeight         0.5000000000         # Default value
DM.Tolerance         0.1000000000E-02
DM.RequireEnergyConvergence              F     # Default value
DM.EnergyTolerance         0.7349806700E-05 Ry     # Default value
DM.RequireHarrisConvergence              F     # Default value
DM.HarrisTolerance         0.7349806700E-05 Ry     # Default value
UseSaveData              F     # Default value
DM.UseSaveDM              T
NeglNonOverlapInt              F     # Default value
SolutionMethod     diagon                                                                                                                              
Diag.DivideAndConquer              T     # Default value
Diag.Memory          1.000000000         # Default value
ElectronicTemperature         0.1837449711E-02         Ry
# Above item originally: ElectronicTemperature          25.00000000     meV       
FixSpin              F     # Default value
ON.MaxNumIter           1000     # Default value
ON.etol         0.1000000000E-07     # Default value
ON.eta          0.000000000     Ry     # Default value
ON.eta_alpha          0.000000000     Ry     # Default value
ON.eta_beta          0.000000000     Ry     # Default value
On.RcLWF          9.500000000     Bohr     # Default value
ON.UseSaveLWF              F     # Default value
ON.functional     kim     # Default value
ON.ChemicalPotentialUse              F     # Default value
ON.ChemicalPotential              F     # Default value
ON.ChemicalPotentialRc          9.500000000     Bohr     # Default value
ON.ChemicalPotentialTemperature         0.5000000000E-01 Ry     # Default value
ON.ChemicalPotentialOrder            100     # Default value
MD.VariableCell              T
MD.TypeOfRun     CG                                                                                                                                  
MD.UseSaveCG              F     # Default value
Optim.Broyden              F     # Default value
MD.NumCGsteps                      100
MD.MaxCGDispl         0.2000000000           Bohr
# Above item originally: MD.MaxCGDispl         0.2000000000     Bohr      
MD.MaxForceTol         0.1555739508E-02    Ry/Bohr
# Above item originally: MD.MaxForceTol         0.4000000000E-01 eV/Ang    
MD.MaxStressTol         0.6797730000E-04 Ry/Bohr**3     # Default value
MD.InitialTimeStep              1     # Default value
MD.FinalTimeStep              1     # Default value
MD.LengthTimeStep          1.000000000     fs     # Default value
MD.Quench              F     # Default value
MD.FireQuench              F     # Default value
MD.InitialTemperature          0.000000000     K     # Default value
MD.TargetTemperature          0.000000000     K     # Default value
MD.TargetPressure          0.000000000     Ry/Bohr**3     # Default value
MD.NoseMass          100.0000000     Ry*fs**2     # Default value
MD.ParrinelloRahmanMass          100.0000000     Ry*fs**2     # Default value
MD.AnnealOption     TemperatureAndPressure     # Default value
MD.TauRelax          100.0000000     fs     # Default value
MD.BulkModulus         0.6797730000E-02 Ry/Bohr**3     # Default value
MD.FCDispl         0.4000000000E-01 Bohr     # Default value
MD.FCfirst              1     # Default value
MD.FClast              8     # Default value
UseSpatialDecomposition              F     # Default value
UseDomainDecomposition              F     # Default value
Harris_functional              F     # Default value
WriteKpoints              F     # Default value
WriteForces              F     # Default value
WriteDM              T     # Default value
WriteDM.NetCDF              T     # Default value
WriteDM.History.NetCDF              F     # Default value
WriteDMHS.NetCDF              T     # Default value
WriteDMHS.History.NetCDF              F     # Default value
SCF.Read.Charge.NetCDF              F     # Default value
SCF.Read.Deformation.Charge.NetCDF              F     # Default value
SaveInitialChargeDensity              F     # Default value
UseNewDiagk              F     # Default value
WriteBands              T
WriteKbands              T
WriteEigenvalues              T
WriteCoorStep              T
WriteMDhistory              T
WriteMDXmol              T
UseSaveData              F     # Default value
SaveHS              F     # Default value
FixAuxiliaryCell              F     # Default value
NaiveAuxiliaryCell              F     # Default value
ReInitialiseDM              T     # Default value
DM.AllowReuse              T     # Default value
DM.AllowExtrapolation              T     # Default value
MullikenInSCF              F     # Default value
WarningMinimumAtomicDistance          1.000000000     Bohr     # Default value
BornCharge              F     # Default value
ChangeKgridInMD              F     # Default value
Diag.ParallelOverK              F     # Default value
MD.RelaxCellOnly              F     # Default value
MD.RemoveIntraMolecularPressure              F     # Default value
COOP.Write              F     # Default value
SaveRho              F     # Default value
SaveDeltaRho              F     # Default value
SaveElectrostaticPotential              F     # Default value
SaveNeutralAtomPotential              F     # Default value
SaveTotalPotential              F     # Default value
SaveIonicCharge              F     # Default value
SaveBaderCharge              F     # Default value
SaveTotalCharge              F     # Default value
RcSpatial          0.000000000     Bohr     # Default value
ProcessorGridX              1     # Default value
ProcessorGridY              1     # Default value
ProcessorGridZ              1     # Default value
NumberOfEigenStates            104     # Default value
TimeReversalSymmetryForKpoints              T     # Default value
kgrid_cutoff          30.00000000           Bohr
# Above item originally: kgrid_cutoff          30.00000000     Bohr      
BandLines
LatticeConstant          10.58247052           Bohr
# Above item originally: LatticeConstant          5.600000000     Ang       
BandLinesScale     pi/a     # Default value

%block BandLines                                                               
1	1.000	1.000 1.000 L                                                          
25	0.000	0.000	0.000 \Gamma                                                    
30	2.000	0.000	0.000 X                                                         
10	2.000	0.500	0.500 U                                                         
35	0.000	0.000	0.000 \Gamma                                                    
%endblock BandLines                                                            

BandLines
LatticeConstant          10.58247052           Bohr
# Above item originally: LatticeConstant          5.600000000     Ang       
BandLinesScale     pi/a     # Default value

%block BandLines                                                               
1	1.000	1.000 1.000 L                                                          
25	0.000	0.000	0.000 \Gamma                                                    
30	2.000	0.000	0.000 X                                                         
10	2.000	0.500	0.500 U                                                         
35	0.000	0.000	0.000 \Gamma                                                    
%endblock BandLines                                                            

WFS.EnergyMin        -0.1797693135+309 Ry     # Default value
WFS.EnergyMax         0.1797693135+309 Ry     # Default value
LongOutput              F     # Default value
WriteWaveFunctions              T
WaveFuncKPoints
WriteWaveDebug              F     # Default value
LatticeConstant          10.58247052           Bohr
# Above item originally: LatticeConstant          5.600000000     Ang       
WaveFuncKPointsScale     pi/a     # Default value

%block WaveFuncKPoints                                                         
0.0 0.0 0.0 from 1 to 50 # > 16 = 4/2*8 (Valenzelektronen/2, Atomzahl ...)     
%endblock WaveFuncKpoints                                                      

WFS.EnergyMin        -0.1797693135+309 Ry     # Default value
WFS.EnergyMax         0.1797693135+309 Ry     # Default value
LongOutput              F     # Default value
WriteWaveFunctions              T
WaveFuncKPoints
WriteWaveDebug              F     # Default value
LatticeConstant          10.58247052           Bohr
# Above item originally: LatticeConstant          5.600000000     Ang       
WaveFuncKPointsScale     pi/a     # Default value

%block WaveFuncKPoints                                                         
0.0 0.0 0.0 from 1 to 50 # > 16 = 4/2*8 (Valenzelektronen/2, Atomzahl ...)     
%endblock WaveFuncKpoints                                                      

ForceAuxCell              F     # Default value
AtomicCoordinatesFormat     NotScaledCartesianAng                                                                                                               
AtomCoorFormatOut     NotScaledCartesianAng      # Default value
LatticeConstant          10.58247052           Bohr
# Above item originally: LatticeConstant          5.600000000     Ang       
DM.FormattedFiles              F     # Default value
DM.FormattedInput              F     # Default value
DM.FormattedOutput              F     # Default value
Harris_functional              F     # Default value
MeshSubDivisions              2     # Default value
LatticeConstant          10.58247052           Bohr
# Above item originally: LatticeConstant          5.600000000     Ang       
DirectPhi              F     # Default value
SimulateDoping              F     # Default value
SlabDipoleCorrection              F     # Default value
LatticeConstant          10.58247052           Bohr
# Above item originally: LatticeConstant          5.600000000     Ang       
Diag.AllInOne              F     # Default value
Diag.DivideAndConquer              T     # Default value
Diag.NoExpert              F     # Default value
Diag.PreRotate              F     # Default value
Diag.Use2D              T     # Default value
SingleExcitation              F     # Default value
OccupationFunction     FD     # Default value
OccupationFunction     FD     # Default value
MD.ConstantVolume              F     # Default value
MD.PreconditionVariableCell          9.448634400     Bohr     # Default value
kgrid_cutoff          30.00000000           Bohr
# Above item originally: kgrid_cutoff          30.00000000     Bohr      
DM.AllowExtrapolation              F     # Default value
kgrid_cutoff          30.00000000           Bohr
# Above item originally: kgrid_cutoff          30.00000000     Bohr      
DM.AllowExtrapolation              F     # Default value
kgrid_cutoff          30.00000000           Bohr
# Above item originally: kgrid_cutoff          30.00000000     Bohr      
DM.AllowExtrapolation              F     # Default value
kgrid_cutoff          30.00000000           Bohr
# Above item originally: kgrid_cutoff          30.00000000     Bohr      
DM.AllowExtrapolation              F     # Default value
kgrid_cutoff          30.00000000           Bohr
# Above item originally: kgrid_cutoff          30.00000000     Bohr      
DM.AllowExtrapolation              F     # Default value
kgrid_cutoff          30.00000000           Bohr
# Above item originally: kgrid_cutoff          30.00000000     Bohr      
DM.AllowExtrapolation              F     # Default value
kgrid_cutoff          30.00000000           Bohr
# Above item originally: kgrid_cutoff          30.00000000     Bohr      
DM.AllowExtrapolation              F     # Default value
WriteCoorXmol              T
WriteCoorCerius              F     # Default value
WFS.Write.For.Bands              F     # Default value
BasisPressure         0.2000000000     GPa     # Default value
OpticalCalculation              F     # Default value
