Siesta Version:                                        siesta-3.2
Architecture  : x86_64-unknown-linux-gnu--unknown
Compiler flags: f95 -g -O2
SERIAL version
Siesta Version:                                        siesta-3.2
Architecture  : x86_64-unknown-linux-gnu--unknown
Compiler flags: f95 -g -O2
SERIAL version

* Running in serial mode
>> Start of run:   9-MAY-2013  20:36:52

                           ***********************       
                           *  WELCOME TO SIESTA  *       
                           ***********************       

reinit: Reading from standard input
************************** Dump of input data file ****************************
************************** End of input data file *****************************

reinit: -----------------------------------------------------------------------
reinit: System Name: 
reinit: -----------------------------------------------------------------------
reinit: System Label: siesta                                                      
reinit: -----------------------------------------------------------------------

* Running in serial mode
>> Start of run:   9-MAY-2013  20:36:52

                           ***********************       
                           *  WELCOME TO SIESTA  *       
                           ***********************       

reinit: Reading from standard input
************************** Dump of input data file ****************************
# FDF for silicon
SystemName             silicon          # Descriptive name of the system
SystemLabel            si          # Short name for naming files
NumberOfAtoms 8
NumberOfSpecies 1
%block ChemicalSpeciesLabel
1 14 Si
%endblock ChemicalSpeciesLabel
LatticeConstant  5.60 Ang
##Basis set Definition##
PAO.BasisType          split        # Type of PAO basis set
PAO.EnergyShift        50 meV
PAO.BasisSize          DZP          # (DZP) Double-z + polarization
#%block LatticeVectors
#0.500 0.500 0.000
#0.500 0.000 0.500
#0.000 0.500 0.500
#%endblock LatticeVectors
AtomicCoordinatesFormat NotScaledCartesianAng
%block AtomicCoordinatesAndAtomicSpecies
	0.00000000	0.00000000	0.00000000  1 Si  1
	1.36000000	1.36000000	1.36000000  1 Si  2
	2.72000000	2.72000000	0.00000000  1 Si  3
	4.08000000	4.08000000	1.36000000  1 Si  4
	2.72000000	0.00000000	2.72000000  1 Si  5
	4.08000000	1.36000000	4.08000000  1 Si  6
	0.00000000	2.72000000	2.72000000  1 Si  7
	1.36000000	4.08000000	4.08000000  1 Si  8
%endblock AtomicCoordinatesAndAtomicSpecies
MeshCutoff 100.0 Ry # 100, 120, 180, 260
kgrid_cutoff 30.0 Bohr # 30, 35, 40, 45
DM.Mixingweight  0.3
DM.NumberPulay    3
DM.Tolerance      1.d-3
DM.UseSaveDM      true
ElectronicTemperature 25 meV
SolutionMethod    diagon
XC.functional      GGA	    # Generalized Gradient Approximation
XC.authors        PBE          # Perdew-Burke-Ernzerhof
SpinPolarized     false
MD.TypeOfRun           CG           # Type of dynamics:
MD.VariableCell        true
MD.NumCGsteps          100          # Number of CG steps for coordinate optimization
MD.MaxCGDispl          0.2 Bohr     # Maximum atomic displacement
                                    #   in one CG step (Bohr)
MD.MaxForceTol         0.04 eV/Ang  # Tolerance in the maximum
                                    #   atomic force (Ry/Bohr)
				
##Output Specification##
WriteMDhistory         true         # Trajectory information
WriteCoorStep          true
WriteCoorXmol          true
WriteMDXmol            true
WriteEigenvalues true
WriteKbands      true
WriteBands       true
WriteWaveFunctions true
WriteMullikenPoP   1
%block BandLines
1	1.000	1.000 1.000 L
25	0.000	0.000	0.000 \Gamma
30	2.000	0.000	0.000 X
10	2.000	0.500	0.500 U
35	0.000	0.000	0.000 \Gamma
%endblock BandLines
%block WaveFuncKPoints
0.0 0.0 0.0 from 1 to 50 # > 16 = 4/2*8 (Valenzelektronen/2, Atomzahl ...)
%endblock WaveFuncKpoints
************************** End of input data file *****************************

reinit: -----------------------------------------------------------------------
reinit: System Name: silicon
reinit: -----------------------------------------------------------------------
reinit: System Label: si                                                          
reinit: -----------------------------------------------------------------------

initatom: Reading input for the pseudopotentials and atomic orbitals ----------
No species found!!!
ERROR STOP from Node:    0

initatom: Reading input for the pseudopotentials and atomic orbitals ----------
 Species number:            1  Label: Si Atomic number:          14
Ground state valence configuration:   3s02  3p02
Reading pseudopotential information in formatted form from Si.psf

Valence configuration for pseudopotential generation:
3s( 2.00) rc: 1.75
3p( 2.00) rc: 1.94
3d( 0.00) rc: 2.09
4f( 0.00) rc: 2.09
For Si, standard SIESTA heuristics set lmxkb to 3
 (one more than the basis l, including polarization orbitals).
Use PS.lmax or PS.KBprojectors blocks to override.

<basis_specs>
===============================================================================
Si                   Z=  14    Mass=  28.090        Charge= 0.17977+309
Lmxo=1 Lmxkb= 3    BasisType=split      Semic=F
L=0  Nsemic=0  Cnfigmx=3
          n=1  nzeta=2  polorb=0
            splnorm:   0.15000    
               vcte:    0.0000    
               rinn:    0.0000    
                rcs:    0.0000      0.0000    
            lambdas:    1.0000      1.0000    
L=1  Nsemic=0  Cnfigmx=3
          n=1  nzeta=2  polorb=1
            splnorm:   0.15000    
               vcte:    0.0000    
               rinn:    0.0000    
                rcs:    0.0000      0.0000    
            lambdas:    1.0000      1.0000    
-------------------------------------------------------------------------------
L=0  Nkbl=1  erefs: 0.17977+309
L=1  Nkbl=1  erefs: 0.17977+309
L=2  Nkbl=1  erefs: 0.17977+309
L=3  Nkbl=1  erefs: 0.17977+309
===============================================================================
</basis_specs>

atom: Called for Si                    (Z =  14)

read_vps: Pseudopotential generation method:
read_vps: ATM3      Troullier-Martins                       
Total valence charge:    4.00000

read_vps: Pseudopotential includes a core correction:
read_vps: Pseudo-core for xc-correction

xc_check: Exchange-correlation functional:
xc_check: GGA Perdew, Burke & Ernzerhof 1996
V l=0 = -2*Zval/r beyond r=  2.0104
V l=1 = -2*Zval/r beyond r=  2.0873
V l=2 = -2*Zval/r beyond r=  2.1670
V l=3 = -2*Zval/r beyond r=  2.1670
All V_l potentials equal beyond r=  2.0613
This should be close to max(r_c) in ps generation
All pots = -2*Zval/r beyond r=  2.1670

VLOCAL1: 99.0% of the norm of Vloc inside     10.216 Ry
VLOCAL1: 99.9% of the norm of Vloc inside     23.282 Ry
atom: Maximum radius for 4*pi*r*r*local-pseudopot. charge    2.45560
atom: Maximum radius for r*vlocal+2*Zval:    2.14012
GHOST: No ghost state for L =  0
GHOST: No ghost state for L =  1
GHOST: No ghost state for L =  2
GHOST: No ghost state for L =  3

KBgen: Kleinman-Bylander projectors: 
   l= 0   rc=  2.306811   el= -0.791441   Ekb=  5.289775   kbcos=  0.291595
   l= 1   rc=  2.394965   el= -0.300632   Ekb=  1.944256   kbcos=  0.287657
   l= 2   rc=  2.549439   el=  0.001958   Ekb= -1.788485   kbcos= -0.056492
   l= 3   rc=  2.782581   el=  0.003046   Ekb= -0.472620   kbcos= -0.006203

KBgen: Total number of  Kleinman-Bylander projectors:   16
atom: -------------------------------------------------------------------------

atom: SANKEY-TYPE ORBITALS:
atom: Selected multiple-zeta basis: split     

SPLIT: Orbitals with angular momentum L= 0

SPLIT: Basis orbitals for state 3s

SPLIT: PAO cut-off radius determined from an
SPLIT: energy shift=  0.003675 Ry

   izeta = 1
                 lambda =    1.000000
                     rc =    6.116033
                 energy =   -0.788343
                kinetic =    0.528041
    potential(screened) =   -1.316383
       potential(ionic) =   -3.704743

   izeta = 2
                 rmatch =    4.530823
              splitnorm =    0.150000
                 energy =   -0.692892
                kinetic =    0.848665
    potential(screened) =   -1.541557
       potential(ionic) =   -4.044985

SPLIT: Orbitals with angular momentum L= 1

SPLIT: Basis orbitals for state 3p

SPLIT: PAO cut-off radius determined from an
SPLIT: energy shift=  0.003675 Ry

   izeta = 1
                 lambda =    1.000000
                     rc =    7.853192
                 energy =   -0.297152
                kinetic =    0.797948
    potential(screened) =   -1.095101
       potential(ionic) =   -3.275753

   izeta = 2
                 rmatch =    5.330310
              splitnorm =    0.150000
                 energy =   -0.228170
                kinetic =    1.148579
    potential(screened) =   -1.376749
       potential(ionic) =   -3.739005

POLgen: Perturbative polarization orbital with L=  2

POLgen: Polarization orbital for state 3p

   izeta = 1
                     rc =    7.853192
                 energy =    0.340222
                kinetic =    1.096718
    potential(screened) =   -0.756496
       potential(ionic) =   -2.716423
atom: Total number of Sankey-type orbitals: 13

atm_pop: Valence configuration (for local Pseudopot. screening):
 3s( 2.00)                                                            
 3p( 2.00)                                                            
Vna: chval, zval:    4.00000   4.00000

Vna:  Cut-off radius for the neutral-atom potential:   7.853192
comcore: Pseudo-core radius Rcore=  2.999314

atom: _________________________________________________________________________

prinput: Basis input ----------------------------------------------------------

PAO.BasisType split     

%block ChemicalSpeciesLabel
    1   14 Si                      # Species index, atomic number, species label
%endblock ChemicalSpeciesLabel

%block PAO.Basis                 # Define Basis set
Si                    2                    # Species label, number of l-shells
 n=3   0   2                         # n, l, Nzeta 
   6.116      4.531   
   1.000      1.000   
 n=3   1   2 P   1                   # n, l, Nzeta, Polarization, NzetaPol
   7.853      5.330   
   1.000      1.000   
%endblock PAO.Basis

prinput: ----------------------------------------------------------------------

coor:   Atomic-coordinates input format  =     Cartesian coordinates
coor:                                          (in Angstroms)

siesta: Atomic coordinates (Bohr) and species
siesta:      0.00000   0.00000   0.00000  1        1
siesta:      2.57003   2.57003   2.57003  1        2
siesta:      5.14006   5.14006   0.00000  1        3
siesta:      7.71009   7.71009   2.57003  1        4
siesta:      5.14006   0.00000   5.14006  1        5
siesta:      7.71009   2.57003   7.71009  1        6
siesta:      0.00000   5.14006   5.14006  1        7
siesta:      2.57003   7.71009   7.71009  1        8

siesta: System type = bulk      

initatomlists: Number of atoms, orbitals, and projectors:      8   104   128

siesta: ******************** Simulation parameters ****************************
siesta:
siesta: The following are some of the parameters of the simulation.
siesta: A complete list of the parameters used, including default values,
siesta: can be found in file out.fdf
siesta:
redata: Non-Collinear-spin run           =     F
redata: SpinPolarized (Up/Down) run      =     F
redata: Number of spin components        =     1
redata: Long output                      =     F
redata: Number of Atomic Species         =        1
redata: Charge density info will appear in .RHO file
redata: Write Mulliken Pop.              =     Atomic and Orbital charges
redata: Mesh Cutoff                      =   100.0000  Ry
redata: Net charge of the system         =     0.0000 |e|
redata: Max. number of SCF Iter          =       50
redata: Performing Pulay mixing using    =     3 iterations
redata: Mix DM in first SCF step ?       =     F
redata: Write Pulay info on disk?        =     F
redata: Discard 1st Pulay DM after  kick =     F
redata: New DM Mixing Weight             =     0.3000
redata: New DM Occupancy tolerance       = 0.000000000001
redata: No kicks to SCF
redata: DM Mixing Weight for Kicks       =     0.5000
redata: DM Tolerance for SCF             =     0.001000
redata: Require Energy convergence for SCF =     F
redata: DM Energy tolerance for SCF      =     0.000100 eV
redata: Require Harris convergence for SCF =     F
redata: DM Harris energy tolerance for SCF =     0.000100 eV
redata: Using Saved Data (generic)   =     F
redata: Use continuation files for DM    =     T
redata: Neglect nonoverlap interactions  =     F
redata: Method of Calculation            =     Diagonalization
redata: Divide and Conquer               =     T
redata: Electronic Temperature           =     0.0018  Ry
redata: Fix the spin of the system       =     F
redata: Dynamics option                  =     CG coord. optimization
redata: Variable cell                    =     T
redata: Use continuation files for CG    =     F
redata: Max atomic displ per move        =     0.2000  Bohr
redata: Maximum number of CG moves       =      100
redata: Force tolerance                  =     0.0016  Ry/Bohr
redata: Stress tolerance                 =     1.0000  GPa
redata: ***********************************************************************
Total number of electrons:    32.000000
Total ionic charge:    32.000000
 Kpoints in:          108 . Kpoints trimmed:          108

siesta: k-grid: Number of k-points =   108
siesta: k-grid: Cutoff (effective) =    16.800 Ang
siesta: k-grid: Supercell and displacements
siesta: k-grid:    0   6   0      0.500
siesta: k-grid:    0   0   6      0.500
siesta: k-grid:    6   0   0      0.500
Naive supercell factors:     5    5    5

superc: Internal auxiliary supercell:     5 x     5 x     5  =     125
superc: Number of atoms, orbitals, and projectors:   1000  13000  16000

* Maximum dynamic memory allocated =     1 MB

siesta:                 ==============================
                            Begin CG move =      0
                        ==============================

outcoor: Atomic coordinates (Ang):                          
    0.00000000    0.00000000    0.00000000   1       1  Si
    1.36000000    1.36000000    1.36000000   1       2  Si
    2.72000000    2.72000000    0.00000000   1       3  Si
    4.08000000    4.08000000    1.36000000   1       4  Si
    2.72000000    0.00000000    2.72000000   1       5  Si
    4.08000000    1.36000000    4.08000000   1       6  Si
    0.00000000    2.72000000    2.72000000   1       7  Si
    1.36000000    4.08000000    4.08000000   1       8  Si

superc: Internal auxiliary supercell:     5 x     5 x     5  =     125
superc: Number of atoms, orbitals, and projectors:   1000  13000  16000

outcell: Unit cell vectors (Ang):
        5.600000    0.000000    0.000000
        0.000000    5.600000    0.000000
        0.000000    0.000000    5.600000

outcell: Cell vector modules (Ang)   :    5.600000    5.600000    5.600000
outcell: Cell angles (23,13,12) (deg):     90.0000     90.0000     90.0000
outcell: Cell volume (Ang**3)        :    175.6160
New_DM. Step:     1
Initializing Density Matrix...

iodm: Reading Density Matrix from files

InitMesh: MESH =    36 x    36 x    36 =       46656
InitMesh: Mesh cutoff (required, used) =   100.000   114.217 Ry

* Maximum dynamic memory allocated =    73 MB

stepf: Fermi-Dirac step function

siesta: Program's energy decomposition (eV):
siesta: Ebs     =      -327.191141
siesta: Eions   =      1510.441798
siesta: Ena     =       473.675326
siesta: Ekin    =       314.241970
siesta: Enl     =       126.354034
siesta: DEna    =         8.141091
siesta: DUscf   =         1.527826
siesta: DUext   =         0.000000
siesta: Exc     =      -443.595946
siesta: eta*DQ  =         0.000000
siesta: Emadel  =         0.000000
siesta: Emeta   =         0.000000
siesta: Emolmec =         0.000000
siesta: Ekinion =         0.000000
siesta: Eharris =     -1030.373327
siesta: Etot    =     -1030.097498
siesta: FreeEng =     -1030.097498

siesta: iscf   Eharris(eV)      E_KS(eV)   FreeEng(eV)   dDmax  Ef(eV)
siesta:    1    -1030.3733    -1030.0975    -1030.0975  0.0584 -4.9705
timer: Routine,Calls,Time,% = IterSCF        1      17.561  96.59
elaps: Routine,Calls,Wall,% = IterSCF        1      17.669  96.58
siesta:    2    -1031.0087    -1029.7939    -1029.7939  0.1105 -4.9285
siesta:    3    -1030.1870    -1030.0646    -1030.0646  0.0017 -4.9653
siesta:    4    -1030.1869    -1030.0888    -1030.0888  0.0014 -4.9651
siesta:    5    -1030.1869    -1030.1606    -1030.1606  0.0004 -4.9645

siesta: E_KS(eV) =            -1030.1782

siesta: E_KS - E_eggbox =     -1030.1782

siesta: Atomic forces (eV/Ang):
----------------------------------------
   Tot    0.004361    0.004349    0.004347
----------------------------------------
   Max    1.176976
   Res    0.777495    sqrt( Sum f_i^2 / 3N )
----------------------------------------
   Max    1.176976    constrained

Stress-tensor-Voigt (kbar):       28.64       28.64       28.64      -10.94      -10.94      -10.94
(Free)E + p*V (eV/cell)    -1033.3170
Target enthalpy (eV/cell)    -1030.1782

siesta: Stress tensor (static) (eV/Ang**3):
         0.017873   -0.006827   -0.006828
        -0.006827    0.017873   -0.006828
        -0.006828   -0.006828    0.017873

siesta: Pressure (static):        -28.63668901  kBar

siesta: Stress tensor (total) (eV/Ang**3):
         0.017873   -0.006827   -0.006828
        -0.006827    0.017873   -0.006828
        -0.006828   -0.006828    0.017873

siesta: Pressure (total):        -28.63668901  kBar

mulliken: Mulliken Atomic and Orbital Populations:

Species: Si                  
Atom  Qatom  Qorb
               3s      3s      3py     3pz     3px     3py     3pz     3px     
               3Pdxy   3Pdyz   3Pdz2   3Pdxz   3Pdx2-y2
   1  4.017   0.767   0.512   0.327   0.327   0.327   0.445   0.445   0.445
              0.102   0.102   0.057   0.102   0.057
   2  4.002   0.577   0.605   0.230   0.230   0.230   0.536   0.536   0.536
              0.124   0.124   0.075   0.124   0.075
   3  3.995   0.636   0.575   0.276   0.233   0.276   0.495   0.523   0.495
              0.113   0.118   0.073   0.118   0.065
   4  3.999   0.702   0.543   0.276   0.317   0.276   0.487   0.458   0.487
              0.113   0.107   0.059   0.107   0.066
   5  3.995   0.636   0.575   0.233   0.276   0.276   0.523   0.495   0.495
              0.118   0.118   0.067   0.113   0.071
   6  3.999   0.702   0.543   0.317   0.276   0.276   0.458   0.487   0.487
              0.107   0.107   0.065   0.113   0.061
   7  3.995   0.636   0.575   0.276   0.276   0.233   0.495   0.495   0.523
              0.118   0.113   0.067   0.118   0.071
   8  3.999   0.702   0.543   0.276   0.276   0.317   0.487   0.487   0.458
              0.107   0.113   0.065   0.107   0.061

mulliken: Qtot =       32.000

cgvc: No target stress found, assuming hydrostatic MD.TargetPressure.

cgvc: Target stress (kBar)
cgvc:        -0.000       0.000       0.000
cgvc:         0.000      -0.000       0.000
cgvc:         0.000       0.000      -0.000

* Maximum dynamic memory allocated =    74 MB

siesta:                 ==============================
                            Begin CG move =      1
                        ==============================

outcoor: Atomic coordinates (Ang):                          
   -0.02856782   -0.02856791   -0.02856773   1       1  Si
    1.35557726    1.35557716    1.35557705   1       2  Si
    2.71738392    2.71738388   -0.02423030   1       3  Si
    4.10144837    4.10144835    1.36682122   1       4  Si
    2.71738413   -0.02423069    2.71738411   1       5  Si
    4.10144832    1.36682127    4.10144804   1       6  Si
   -0.02423070    2.71738415    2.71738412   1       7  Si
    1.36682126    4.10144827    4.10144805   1       8  Si
 Kpoints in:          108 . Kpoints trimmed:          108

siesta: k-grid: Number of k-points =   108
siesta: k-grid: Cutoff (effective) =    16.744 Ang
siesta: k-grid: Supercell and displacements
siesta: k-grid:    0   0   6      0.500
siesta: k-grid:    6   0   0      0.500
siesta: k-grid:    0   6   0      0.500
Naive supercell factors:     5    5    5

superc: Internal auxiliary supercell:     5 x     5 x     5  =     125
superc: Number of atoms, orbitals, and projectors:   1000  13000  16000

outcell: Unit cell vectors (Ang):
        5.581316    0.007137    0.007137
        0.007137    5.581316    0.007137
        0.007137    0.007137    5.581316

outcell: Cell vector modules (Ang)   :    5.581326    5.581326    5.581325
outcell: Cell angles (23,13,12) (deg):     89.8534     89.8534     89.8534
outcell: Cell volume (Ang**3)        :    173.8632
New_DM. Step:     2
Re-using DM from previous geometry...
Re-using DM without extrapolation (not allowed)
Density Matrix sparsity pattern changed.

InitMesh: MESH =    36 x    36 x    36 =       46656
InitMesh: Mesh cutoff (required, used) =   100.000   114.984 Ry

siesta: iscf   Eharris(eV)      E_KS(eV)   FreeEng(eV)   dDmax  Ef(eV)
siesta:    1    -1030.5462    -1030.5629    -1030.5629  0.0157 -4.9794
siesta:    2    -1030.6730    -1030.4245    -1030.4245  0.0507 -4.9594
siesta:    3    -1030.5057    -1030.5057    -1030.5057  0.0119 -4.9745
siesta:    4    -1030.5057    -1030.4913    -1030.4913  0.0010 -4.9743

siesta: E_KS(eV) =            -1030.4955

siesta: Atomic forces (eV/Ang):
----------------------------------------
   Tot   -0.004855   -0.004856   -0.004859
----------------------------------------
   Max    0.537742
   Res    0.404941    sqrt( Sum f_i^2 / 3N )
----------------------------------------
   Max    0.537742    constrained

Stress-tensor-Voigt (kbar):       25.56       25.56       25.56       -0.95       -0.95       -0.95
(Free)E + p*V (eV/cell)    -1033.2690
Target enthalpy (eV/cell)    -1030.4955

siesta: Stress tensor (static) (eV/Ang**3):
         0.015952   -0.000590   -0.000590
        -0.000590    0.015952   -0.000590
        -0.000590   -0.000590    0.015952

siesta: Pressure (static):        -25.55852625  kBar

siesta: Stress tensor (total) (eV/Ang**3):
         0.015952   -0.000590   -0.000590
        -0.000590    0.015952   -0.000590
        -0.000590   -0.000590    0.015952

siesta: Pressure (total):        -25.55852625  kBar

mulliken: Mulliken Atomic and Orbital Populations:

Species: Si                  
Atom  Qatom  Qorb
               3s      3s      3py     3pz     3px     3py     3pz     3px     
               3Pdxy   3Pdyz   3Pdz2   3Pdxz   3Pdx2-y2
   1  4.006   0.731   0.527   0.298   0.298   0.298   0.469   0.469   0.469
              0.107   0.107   0.061   0.107   0.061
   2  4.003   0.609   0.588   0.245   0.245   0.245   0.522   0.522   0.522
              0.120   0.120   0.072   0.120   0.072
   3  3.998   0.644   0.571   0.270   0.242   0.270   0.499   0.518   0.499
              0.114   0.117   0.071   0.117   0.065
   4  3.999   0.686   0.550   0.268   0.294   0.268   0.496   0.478   0.496
              0.114   0.111   0.062   0.111   0.067
   5  3.998   0.644   0.571   0.242   0.270   0.270   0.518   0.499   0.499
              0.117   0.117   0.067   0.114   0.069
   6  3.999   0.686   0.550   0.294   0.268   0.268   0.478   0.496   0.496
              0.111   0.111   0.066   0.114   0.063
   7  3.998   0.644   0.571   0.270   0.270   0.242   0.499   0.499   0.518
              0.117   0.114   0.067   0.117   0.069
   8  3.999   0.686   0.550   0.268   0.268   0.294   0.496   0.496   0.478
              0.111   0.114   0.066   0.111   0.063

mulliken: Qtot =       32.000

* Maximum dynamic memory allocated =    82 MB

siesta:                 ==============================
                            Begin CG move =      2
                        ==============================

outcoor: Atomic coordinates (Ang):                          
   -0.07418268   -0.07418292   -0.07418245   1       1  Si
    1.34851187    1.34851160    1.34851131   1       2  Si
    2.71300631    2.71300622   -0.06253247   1       3  Si
    4.13552872    4.13552868    1.37802167   1       4  Si
    2.71300685   -0.06253348    2.71300680   1       5  Si
    4.13552860    1.37802181    4.13552788   1       6  Si
   -0.06253352    2.71300690    2.71300683   1       7  Si
    1.37802177    4.13552846    4.13552789   1       8  Si
 Kpoints in:          108 . Kpoints trimmed:          108

siesta: k-grid: Number of k-points =   108
siesta: k-grid: Cutoff (effective) =    16.654 Ang
siesta: k-grid: Supercell and displacements
siesta: k-grid:    0   0   6      0.500
siesta: k-grid:    6   0   0      0.500
siesta: k-grid:    0   6   0      0.500
Naive supercell factors:     5    5    5

superc: Internal auxiliary supercell:     5 x     5 x     5  =     125
superc: Number of atoms, orbitals, and projectors:   1000  13000  16000

outcell: Unit cell vectors (Ang):
        5.551423    0.018556    0.018556
        0.018556    5.551423    0.018556
        0.018556    0.018556    5.551422

outcell: Cell vector modules (Ang)   :    5.551485    5.551485    5.551485
outcell: Cell angles (23,13,12) (deg):     89.6163     89.6163     89.6163
outcell: Cell volume (Ang**3)        :    171.0796
New_DM. Step:     3
Re-using DM from previous geometry...
Re-using DM without extrapolation (not allowed)
Density Matrix sparsity pattern changed.

InitMesh: MESH =    36 x    36 x    36 =       46656
InitMesh: Mesh cutoff (required, used) =   100.000   116.232 Ry

siesta: iscf   Eharris(eV)      E_KS(eV)   FreeEng(eV)   dDmax  Ef(eV)
siesta:    1    -1030.6576    -1030.9040    -1030.9040  0.0265 -4.9014
siesta:    2    -1030.9367    -1030.3896    -1030.3896  0.0684 -4.9118
siesta:    3    -1030.5685    -1030.6498    -1030.6498  0.0188 -4.8834
siesta:    4    -1030.5683    -1030.5378    -1030.5378  0.0016 -4.8780
siesta:    5    -1030.5683    -1030.5444    -1030.5444  0.0007 -4.8784

siesta: E_KS(eV) =            -1030.5604

siesta: Atomic forces (eV/Ang):
----------------------------------------
   Tot    0.001635    0.001628    0.001635
----------------------------------------
   Max    0.534720
   Res    0.403285    sqrt( Sum f_i^2 / 3N )
----------------------------------------
   Max    0.534720    constrained

Stress-tensor-Voigt (kbar):       12.50       12.50       12.50       15.14       15.14       15.14
(Free)E + p*V (eV/cell)    -1031.8950
Target enthalpy (eV/cell)    -1030.5604

siesta: Stress tensor (static) (eV/Ang**3):
         0.007801    0.009451    0.009452
         0.009451    0.007801    0.009452
         0.009452    0.009452    0.007801

siesta: Pressure (static):        -12.49860443  kBar

siesta: Stress tensor (total) (eV/Ang**3):
         0.007801    0.009451    0.009452
         0.009451    0.007801    0.009452
         0.009452    0.009452    0.007801

siesta: Pressure (total):        -12.49860443  kBar

mulliken: Mulliken Atomic and Orbital Populations:

Species: Si                  
Atom  Qatom  Qorb
               3s      3s      3py     3pz     3px     3py     3pz     3px     
               3Pdxy   3Pdyz   3Pdz2   3Pdxz   3Pdx2-y2
   1  3.999   0.657   0.563   0.257   0.257   0.257   0.508   0.508   0.508
              0.116   0.116   0.068   0.116   0.068
   2  3.999   0.658   0.563   0.262   0.262   0.262   0.504   0.504   0.504
              0.115   0.115   0.067   0.115   0.067
   3  4.000   0.652   0.566   0.255   0.253   0.255   0.510   0.512   0.510
              0.116   0.116   0.068   0.116   0.068
   4  4.001   0.648   0.568   0.260   0.257   0.260   0.507   0.509   0.507
              0.116   0.116   0.069   0.116   0.068
   5  4.000   0.652   0.566   0.253   0.255   0.255   0.512   0.510   0.510
              0.116   0.116   0.068   0.116   0.068
   6  4.001   0.648   0.568   0.257   0.260   0.260   0.509   0.507   0.507
              0.116   0.116   0.068   0.116   0.068
   7  4.000   0.652   0.566   0.255   0.255   0.253   0.510   0.510   0.512
              0.116   0.116   0.068   0.116   0.068
   8  4.001   0.648   0.568   0.260   0.260   0.257   0.507   0.507   0.509
              0.116   0.116   0.068   0.116   0.068

mulliken: Qtot =       32.000

* Maximum dynamic memory allocated =    82 MB

siesta:                 ==============================
                            Begin CG move =      3
                        ==============================

outcoor: Atomic coordinates (Ang):                          
   -0.05741408   -0.05741426   -0.05741389   1       1  Si
    1.35110970    1.35110949    1.35110927   1       2  Si
    2.71464432    2.71464425   -0.04850758   1       3  Si
    4.12302426    4.12302422    1.37385995   1       4  Si
    2.71464474   -0.04850836    2.71464470   1       5  Si
    4.12302416    1.37386006    4.12302360   1       6  Si
   -0.04850839    2.71464478    2.71464472   1       7  Si
    1.37386003    4.12302405    4.12302361   1       8  Si
 Kpoints in:          108 . Kpoints trimmed:          108

siesta: k-grid: Number of k-points =   108
siesta: k-grid: Cutoff (effective) =    16.687 Ang
siesta: k-grid: Supercell and displacements
siesta: k-grid:    0   0   6      0.500
siesta: k-grid:    6   0   0      0.500
siesta: k-grid:    0   6   0      0.500
Naive supercell factors:     5    5    5

superc: Internal auxiliary supercell:     5 x     5 x     5  =     125
superc: Number of atoms, orbitals, and projectors:   1000  13000  16000

outcell: Unit cell vectors (Ang):
        5.562421    0.014355    0.014355
        0.014355    5.562421    0.014355
        0.014355    0.014355    5.562421

outcell: Cell vector modules (Ang)   :    5.562458    5.562458    5.562458
outcell: Cell angles (23,13,12) (deg):     89.7039     89.7039     89.7039
outcell: Cell volume (Ang**3)        :    172.1008
New_DM. Step:     4
Re-using DM from previous geometry...
Re-using DM without extrapolation (not allowed)

InitMesh: MESH =    36 x    36 x    36 =       46656
InitMesh: Mesh cutoff (required, used) =   100.000   115.770 Ry

siesta: iscf   Eharris(eV)      E_KS(eV)   FreeEng(eV)   dDmax  Ef(eV)
siesta:    1    -1030.6226    -1030.4352    -1030.4352  0.0083 -4.9186
siesta:    2    -1030.6617    -1030.5848    -1030.5848  0.0278 -4.9487
siesta:    3    -1030.6100    -1030.5368    -1030.5368  0.0063 -4.9309
siesta:    4    -1030.6100    -1030.6064    -1030.6064  0.0005 -4.9311

siesta: E_KS(eV) =            -1030.6077

siesta: Atomic forces (eV/Ang):
----------------------------------------
   Tot   -0.013068   -0.013069   -0.013110
----------------------------------------
   Max    0.452813
   Res    0.263341    sqrt( Sum f_i^2 / 3N )
----------------------------------------
   Max    0.452813    constrained

Stress-tensor-Voigt (kbar):       17.90       17.90       17.90        8.78        8.78        8.78
(Free)E + p*V (eV/cell)    -1032.5307
Target enthalpy (eV/cell)    -1030.6077

siesta: Stress tensor (static) (eV/Ang**3):
         0.011173    0.005479    0.005479
         0.005479    0.011173    0.005479
         0.005479    0.005479    0.011173

siesta: Pressure (static):        -17.90185385  kBar

siesta: Stress tensor (total) (eV/Ang**3):
         0.011173    0.005479    0.005479
         0.005479    0.011173    0.005479
         0.005479    0.005479    0.011173

siesta: Pressure (total):        -17.90185385  kBar

mulliken: Mulliken Atomic and Orbital Populations:

Species: Si                  
Atom  Qatom  Qorb
               3s      3s      3py     3pz     3px     3py     3pz     3px     
               3Pdxy   3Pdyz   3Pdz2   3Pdxz   3Pdx2-y2
   1  3.999   0.683   0.551   0.271   0.271   0.271   0.495   0.495   0.495
              0.113   0.113   0.065   0.113   0.065
   2  4.001   0.641   0.571   0.256   0.256   0.256   0.510   0.510   0.510
              0.117   0.117   0.069   0.117   0.069
   3  4.000   0.651   0.567   0.260   0.248   0.260   0.507   0.515   0.507
              0.115   0.117   0.069   0.117   0.067
   4  4.000   0.662   0.561   0.262   0.272   0.262   0.503   0.497   0.503
              0.115   0.114   0.066   0.114   0.067
   5  4.000   0.651   0.567   0.248   0.260   0.260   0.515   0.507   0.507
              0.117   0.117   0.068   0.115   0.069
   6  4.000   0.662   0.561   0.272   0.262   0.262   0.497   0.503   0.503
              0.114   0.114   0.067   0.115   0.066
   7  4.000   0.651   0.567   0.260   0.260   0.248   0.507   0.507   0.515
              0.117   0.115   0.068   0.117   0.069
   8  4.000   0.662   0.561   0.262   0.262   0.272   0.503   0.503   0.497
              0.114   0.115   0.067   0.114   0.066

mulliken: Qtot =       32.000

cgvc: Finished line minimization    1.  Mean atomic displacement =    0.1422

* Maximum dynamic memory allocated =    82 MB

siesta:                 ==============================
                            Begin CG move =      4
                        ==============================

outcoor: Atomic coordinates (Ang):                          
   -0.07173321   -0.07173307   -0.07173461   1       1  Si
    1.27856233    1.27856247    1.27856380   1       2  Si
    2.71353678    2.71353668   -0.07140076   1       3  Si
    4.06103341    4.06103360    1.26381681   1       4  Si
    2.71353387   -0.07139097    2.71353305   1       5  Si
    4.06103135    1.26381976    4.06103136   1       6  Si
   -0.07139026    2.71353379    2.71353282   1       7  Si
    1.26381985    4.06103064    4.06103151   1       8  Si
 Kpoints in:          108 . Kpoints trimmed:          108

siesta: k-grid: Number of k-points =   108
siesta: k-grid: Cutoff (effective) =    16.470 Ang
siesta: k-grid: Supercell and displacements
siesta: k-grid:    0   0   6      0.500
siesta: k-grid:    6   0   0      0.500
siesta: k-grid:    0   6   0      0.500
Naive supercell factors:     5    5    5

superc: Internal auxiliary supercell:     5 x     5 x     5  =     125
superc: Number of atoms, orbitals, and projectors:   1000  13000  16000

outcell: Unit cell vectors (Ang):
        5.489905   -0.008466   -0.008470
       -0.008466    5.489905   -0.008470
       -0.008470   -0.008470    5.489904

outcell: Cell vector modules (Ang)   :    5.489918    5.489918    5.489917
outcell: Cell angles (23,13,12) (deg):     90.1767     90.1767     90.1766
outcell: Cell volume (Ang**3)        :    165.4593
New_DM. Step:     5
Re-using DM from previous geometry...
Re-using DM without extrapolation (not allowed)
Density Matrix sparsity pattern changed.

InitMesh: MESH =    36 x    36 x    36 =       46656
InitMesh: Mesh cutoff (required, used) =   100.000   118.846 Ry

siesta: iscf   Eharris(eV)      E_KS(eV)   FreeEng(eV)   dDmax  Ef(eV)
siesta:    1    -1030.6402    -1031.5513    -1031.5513  0.0339 -5.0362
siesta:    2    -1031.0319    -1030.2595    -1030.2595  0.0972 -5.0515
siesta:    3    -1030.5137    -1030.7456    -1030.7456  0.0206 -5.0403
siesta:    4    -1030.5133    -1030.4532    -1030.4532  0.0018 -5.0348
siesta:    5    -1030.5132    -1030.4651    -1030.4651  0.0012 -5.0352
siesta:    6    -1030.5132    -1030.5009    -1030.5009  0.0004 -5.0356

siesta: E_KS(eV) =            -1030.5071

siesta: Atomic forces (eV/Ang):
----------------------------------------
   Tot    0.004259    0.004252    0.004266
----------------------------------------
   Max    0.853088
   Res    0.520834    sqrt( Sum f_i^2 / 3N )
----------------------------------------
   Max    0.853088    constrained

Stress-tensor-Voigt (kbar):      -16.55      -16.55      -16.55      -12.31      -12.32      -12.32
(Free)E + p*V (eV/cell)    -1028.7978
Target enthalpy (eV/cell)    -1030.5071

siesta: Stress tensor (static) (eV/Ang**3):
        -0.010330   -0.007685   -0.007686
        -0.007685   -0.010330   -0.007686
        -0.007686   -0.007686   -0.010331

siesta: Pressure (static):         16.55137388  kBar

siesta: Stress tensor (total) (eV/Ang**3):
        -0.010330   -0.007685   -0.007686
        -0.007685   -0.010330   -0.007686
        -0.007686   -0.007686   -0.010331

siesta: Pressure (total):         16.55137388  kBar

mulliken: Mulliken Atomic and Orbital Populations:

Species: Si                  
Atom  Qatom  Qorb
               3s      3s      3py     3pz     3px     3py     3pz     3px     
               3Pdxy   3Pdyz   3Pdz2   3Pdxz   3Pdx2-y2
   1  4.011   0.577   0.603   0.213   0.213   0.213   0.552   0.552   0.552
              0.127   0.127   0.078   0.127   0.078
   2  3.997   0.675   0.554   0.252   0.252   0.252   0.510   0.510   0.510
              0.116   0.116   0.067   0.116   0.067
   3  3.996   0.644   0.569   0.230   0.256   0.230   0.530   0.512   0.530
              0.121   0.118   0.068   0.118   0.073
   4  4.001   0.611   0.586   0.234   0.211   0.234   0.532   0.547   0.532
              0.121   0.123   0.076   0.123   0.071
   5  3.996   0.644   0.569   0.256   0.230   0.230   0.512   0.530   0.530
              0.118   0.118   0.071   0.121   0.069
   6  4.001   0.611   0.586   0.211   0.234   0.234   0.547   0.532   0.532
              0.123   0.123   0.072   0.121   0.075
   7  3.996   0.644   0.569   0.230   0.230   0.256   0.530   0.530   0.512
              0.118   0.121   0.071   0.118   0.069
   8  4.001   0.611   0.586   0.234   0.234   0.211   0.532   0.532   0.547
              0.123   0.121   0.072   0.123   0.075

mulliken: Qtot =       32.000

* Maximum dynamic memory allocated =    83 MB

siesta:                 ==============================
                            Begin CG move =      5
                        ==============================

outcoor: Atomic coordinates (Ang):                          
   -0.06267791   -0.06267797   -0.06267830   1       1  Si
    1.32461377    1.32461369    1.32461403   1       2  Si
    2.71442286    2.71442278   -0.05671689   1       3  Si
    4.10057080    4.10057085    1.33385033   1       4  Si
    2.71442209   -0.05671382    2.71442177   1       5  Si
    4.10057001    1.33385147    4.10056965   1       6  Si
   -0.05671358    2.71442209    2.71442170   1       7  Si
    1.33385148    4.10056968    4.10056971   1       8  Si
 Kpoints in:          108 . Kpoints trimmed:          108

siesta: k-grid: Number of k-points =   108
siesta: k-grid: Cutoff (effective) =    16.608 Ang
siesta: k-grid: Supercell and displacements
siesta: k-grid:    0   0   6      0.500
siesta: k-grid:    6   0   0      0.500
siesta: k-grid:    0   6   0      0.500
Naive supercell factors:     5    5    5

superc: Internal auxiliary supercell:     5 x     5 x     5  =     125
superc: Number of atoms, orbitals, and projectors:   1000  13000  16000

outcell: Unit cell vectors (Ang):
        5.536156    0.006089    0.006088
        0.006089    5.536156    0.006088
        0.006088    0.006088    5.536155

outcell: Cell vector modules (Ang)   :    5.536162    5.536162    5.536162
outcell: Cell angles (23,13,12) (deg):     89.8739     89.8739     89.8739
outcell: Cell volume (Ang**3)        :    169.6771
New_DM. Step:     6
Re-using DM from previous geometry...
Re-using DM without extrapolation (not allowed)
Density Matrix sparsity pattern changed.

InitMesh: MESH =    36 x    36 x    36 =       46656
InitMesh: Mesh cutoff (required, used) =   100.000   116.867 Ry

siesta: iscf   Eharris(eV)      E_KS(eV)   FreeEng(eV)   dDmax  Ef(eV)
siesta:    1    -1030.7232    -1029.9041    -1029.9041  0.0232 -4.9725
siesta:    2    -1030.8927    -1030.5602    -1030.5602  0.0534 -4.9882
siesta:    3    -1030.6695    -1030.3888    -1030.3888  0.0151 -4.9693
siesta:    4    -1030.6693    -1030.6440    -1030.6440  0.0009 -4.9715

siesta: E_KS(eV) =            -1030.6516

siesta: Atomic forces (eV/Ang):
----------------------------------------
   Tot   -0.014681   -0.014690   -0.014709
----------------------------------------
   Max    0.075189
   Res    0.044552    sqrt( Sum f_i^2 / 3N )
----------------------------------------
   Max    0.075189    constrained

Stress-tensor-Voigt (kbar):        6.83        6.83        6.83        2.67        2.67        2.67
(Free)E + p*V (eV/cell)    -1031.3746
Target enthalpy (eV/cell)    -1030.6516

siesta: Stress tensor (static) (eV/Ang**3):
         0.004261    0.001667    0.001666
         0.001667    0.004261    0.001666
         0.001666    0.001666    0.004261

siesta: Pressure (static):         -6.82691302  kBar

siesta: Stress tensor (total) (eV/Ang**3):
         0.004261    0.001667    0.001666
         0.001667    0.004261    0.001666
         0.001666    0.001666    0.004261

siesta: Pressure (total):         -6.82691302  kBar

mulliken: Mulliken Atomic and Orbital Populations:

Species: Si                  
Atom  Qatom  Qorb
               3s      3s      3py     3pz     3px     3py     3pz     3px     
               3Pdxy   3Pdyz   3Pdz2   3Pdxz   3Pdx2-y2
   1  4.000   0.645   0.569   0.249   0.249   0.249   0.516   0.516   0.516
              0.118   0.118   0.069   0.118   0.069
   2  4.001   0.655   0.564   0.256   0.256   0.256   0.510   0.510   0.510
              0.116   0.116   0.068   0.116   0.068
   3  4.000   0.650   0.566   0.251   0.253   0.251   0.514   0.513   0.514
              0.117   0.117   0.069   0.117   0.069
   4  4.000   0.645   0.569   0.252   0.249   0.252   0.513   0.515   0.513
              0.117   0.118   0.069   0.118   0.069
   5  4.000   0.650   0.566   0.253   0.251   0.251   0.513   0.514   0.514
              0.117   0.117   0.069   0.117   0.069
   6  4.000   0.645   0.569   0.249   0.252   0.252   0.515   0.513   0.513
              0.118   0.118   0.069   0.117   0.069
   7  4.000   0.650   0.566   0.251   0.251   0.253   0.514   0.514   0.513
              0.117   0.117   0.069   0.117   0.069
   8  4.000   0.645   0.569   0.252   0.252   0.249   0.513   0.513   0.515
              0.118   0.117   0.069   0.118   0.069

mulliken: Qtot =       32.000

cgvc: Finished line minimization    2.  Mean atomic displacement =    0.0515

* Maximum dynamic memory allocated =    84 MB

siesta:                 ==============================
                            Begin CG move =      6
                        ==============================

outcoor: Atomic coordinates (Ang):                          
   -0.05064955   -0.05064955   -0.05064731   1       1  Si
    1.31775826    1.31775786    1.31775130   1       2  Si
    2.68128455    2.68128389   -0.05307055   1       3  Si
    4.05174091    4.05174040    1.30705106   1       4  Si
    2.68128723   -0.05308058    2.68128882   1       5  Si
    4.05174482    1.30705191    4.05174073   1       6  Si
   -0.05308075    2.68128717    2.68128841   1       7  Si
    1.30705224    4.05174481    4.05174087   1       8  Si
 Kpoints in:          108 . Kpoints trimmed:          108

siesta: k-grid: Number of k-points =   108
siesta: k-grid: Cutoff (effective) =    16.506 Ang
siesta: k-grid: Supercell and displacements
siesta: k-grid:    6   0   0      0.500
siesta: k-grid:    0   6   0      0.500
siesta: k-grid:    0   0   6      0.500
Naive supercell factors:     5    5    5

superc: Internal auxiliary supercell:     5 x     5 x     5  =     125
superc: Number of atoms, orbitals, and projectors:   1000  13000  16000

outcell: Unit cell vectors (Ang):
        5.501938   -0.007474   -0.007471
       -0.007474    5.501938   -0.007471
       -0.007471   -0.007471    5.501940

outcell: Cell vector modules (Ang)   :    5.501948    5.501948    5.501950
outcell: Cell angles (23,13,12) (deg):     90.1555     90.1555     90.1556
outcell: Cell volume (Ang**3)        :    166.5501
New_DM. Step:     7
Re-using DM from previous geometry...
Re-using DM without extrapolation (not allowed)
Density Matrix sparsity pattern changed.

InitMesh: MESH =    36 x    36 x    36 =       46656
InitMesh: Mesh cutoff (required, used) =   100.000   118.326 Ry

siesta: iscf   Eharris(eV)      E_KS(eV)   FreeEng(eV)   dDmax  Ef(eV)
siesta:    1    -1030.6687    -1031.1210    -1031.1210  0.0317 -5.0273
siesta:    2    -1030.7119    -1030.6273    -1030.6273  0.0319 -5.0255
siesta:    3    -1030.6552    -1030.7214    -1030.7214  0.0058 -5.0161
siesta:    4    -1030.6550    -1030.6459    -1030.6459  0.0007 -5.0148

siesta: E_KS(eV) =            -1030.6484

siesta: Atomic forces (eV/Ang):
----------------------------------------
   Tot    0.014200    0.014197    0.014188
----------------------------------------
   Max    0.277638
   Res    0.154026    sqrt( Sum f_i^2 / 3N )
----------------------------------------
   Max    0.277638    constrained

Stress-tensor-Voigt (kbar):       -8.33       -8.33       -8.33       -4.34       -4.33       -4.34
(Free)E + p*V (eV/cell)    -1029.7829
Target enthalpy (eV/cell)    -1030.6484

siesta: Stress tensor (static) (eV/Ang**3):
        -0.005197   -0.002708   -0.002706
        -0.002708   -0.005197   -0.002706
        -0.002706   -0.002706   -0.005197

siesta: Pressure (static):          8.32627723  kBar

siesta: Stress tensor (total) (eV/Ang**3):
        -0.005197   -0.002708   -0.002706
        -0.002708   -0.005197   -0.002706
        -0.002706   -0.002706   -0.005197

siesta: Pressure (total):          8.32627723  kBar

mulliken: Mulliken Atomic and Orbital Populations:

Species: Si                  
Atom  Qatom  Qorb
               3s      3s      3py     3pz     3px     3py     3pz     3px     
               3Pdxy   3Pdyz   3Pdz2   3Pdxz   3Pdx2-y2
   1  3.999   0.646   0.568   0.243   0.243   0.243   0.521   0.521   0.521
              0.118   0.118   0.069   0.118   0.069
   2  4.003   0.614   0.584   0.230   0.230   0.230   0.534   0.534   0.534
              0.122   0.122   0.073   0.122   0.073
   3  4.000   0.629   0.577   0.237   0.231   0.237   0.527   0.531   0.527
              0.120   0.121   0.072   0.121   0.071
   4  4.000   0.640   0.572   0.239   0.249   0.239   0.524   0.517   0.524
              0.120   0.119   0.069   0.119   0.071
   5  4.000   0.629   0.577   0.231   0.237   0.237   0.531   0.527   0.527
              0.121   0.121   0.071   0.120   0.072
   6  4.000   0.640   0.572   0.249   0.239   0.239   0.517   0.524   0.524
              0.119   0.119   0.071   0.120   0.070
   7  4.000   0.629   0.577   0.237   0.237   0.231   0.527   0.527   0.531
              0.121   0.120   0.071   0.121   0.072
   8  4.000   0.640   0.572   0.239   0.239   0.249   0.524   0.524   0.517
              0.119   0.120   0.071   0.119   0.070

mulliken: Qtot =       32.000

* Maximum dynamic memory allocated =    84 MB

siesta:                 ==============================
                            Begin CG move =      7
                        ==============================

outcoor: Atomic coordinates (Ang):                          
   -0.05876907   -0.05876911   -0.05876862   1       1  Si
    1.32242076    1.32242058    1.32241868   1       2  Si
    2.70372041    2.70372014   -0.05552854   1       3  Si
    4.08479636    4.08479623    1.32519400   1       4  Si
    2.70372075   -0.05552971    2.70372104   1       5  Si
    4.08479710    1.32519505    4.08479552   1       6  Si
   -0.05552960    2.70372073    2.70372086   1       7  Si
    1.32519517    4.08479687    4.08479561   1       8  Si
 Kpoints in:          108 . Kpoints trimmed:          108

siesta: k-grid: Number of k-points =   108
siesta: k-grid: Cutoff (effective) =    16.575 Ang
siesta: k-grid: Supercell and displacements
siesta: k-grid:    6   0   0      0.500
siesta: k-grid:    0   6   0      0.500
siesta: k-grid:    0   0   6      0.500
Naive supercell factors:     5    5    5

superc: Internal auxiliary supercell:     5 x     5 x     5  =     125
superc: Number of atoms, orbitals, and projectors:   1000  13000  16000

outcell: Unit cell vectors (Ang):
        5.525115    0.001713    0.001713
        0.001713    5.525115    0.001713
        0.001713    0.001713    5.525115

outcell: Cell vector modules (Ang)   :    5.525115    5.525115    5.525116
outcell: Cell angles (23,13,12) (deg):     89.9645     89.9645     89.9645
outcell: Cell volume (Ang**3)        :    168.6645
New_DM. Step:     8
Re-using DM from previous geometry...
Re-using DM without extrapolation (not allowed)
Density Matrix sparsity pattern changed.

InitMesh: MESH =    36 x    36 x    36 =       46656
InitMesh: Mesh cutoff (required, used) =   100.000   117.334 Ry

siesta: iscf   Eharris(eV)      E_KS(eV)   FreeEng(eV)   dDmax  Ef(eV)
siesta:    1    -1030.6809    -1030.3240    -1030.3240  0.0100 -4.9884
siesta:    2    -1030.7014    -1030.6613    -1030.6613  0.0207 -4.9951
siesta:    3    -1030.6745    -1030.5750    -1030.5750  0.0052 -4.9907
siesta:    4    -1030.6744    -1030.6703    -1030.6703  0.0004 -4.9918

siesta: E_KS(eV) =            -1030.6715

siesta: Atomic forces (eV/Ang):
----------------------------------------
   Tot   -0.009501   -0.009497   -0.009529
----------------------------------------
   Max    0.030636
   Res    0.017411    sqrt( Sum f_i^2 / 3N )
----------------------------------------
   Max    0.030636    constrained

Stress-tensor-Voigt (kbar):        2.26        2.26        2.26        0.64        0.64        0.64
(Free)E + p*V (eV/cell)    -1030.9096
Target enthalpy (eV/cell)    -1030.6715

siesta: Stress tensor (static) (eV/Ang**3):
         0.001411    0.000398    0.000398
         0.000398    0.001411    0.000398
         0.000398    0.000398    0.001411

siesta: Pressure (static):         -2.26131331  kBar

siesta: Stress tensor (total) (eV/Ang**3):
         0.001411    0.000398    0.000398
         0.000398    0.001411    0.000398
         0.000398    0.000398    0.001411

siesta: Pressure (total):         -2.26131331  kBar

mulliken: Mulliken Atomic and Orbital Populations:

Species: Si                  
Atom  Qatom  Qorb
               3s      3s      3py     3pz     3px     3py     3pz     3px     
               3Pdxy   3Pdyz   3Pdz2   3Pdxz   3Pdx2-y2
   1  4.000   0.646   0.568   0.247   0.247   0.247   0.518   0.518   0.518
              0.118   0.118   0.069   0.118   0.069
   2  4.000   0.641   0.571   0.247   0.247   0.247   0.518   0.518   0.518
              0.118   0.118   0.070   0.118   0.070
   3  4.000   0.643   0.570   0.246   0.245   0.246   0.518   0.519   0.518
              0.118   0.118   0.070   0.118   0.069
   4  4.000   0.644   0.569   0.248   0.249   0.248   0.517   0.516   0.517
              0.118   0.118   0.069   0.118   0.069
   5  4.000   0.643   0.570   0.245   0.246   0.246   0.519   0.518   0.518
              0.118   0.118   0.069   0.118   0.070
   6  4.000   0.644   0.569   0.249   0.248   0.248   0.516   0.517   0.517
              0.118   0.118   0.069   0.118   0.069
   7  4.000   0.643   0.570   0.246   0.246   0.245   0.518   0.518   0.519
              0.118   0.118   0.069   0.118   0.070
   8  4.000   0.644   0.569   0.248   0.248   0.249   0.517   0.517   0.516
              0.118   0.118   0.069   0.118   0.069

mulliken: Qtot =       32.000

* Maximum dynamic memory allocated =    84 MB

outcoor: Relaxed atomic coordinates (Ang):                  
   -0.05876907   -0.05876911   -0.05876862   1       1  Si
    1.32242076    1.32242058    1.32241868   1       2  Si
    2.70372041    2.70372014   -0.05552854   1       3  Si
    4.08479636    4.08479623    1.32519400   1       4  Si
    2.70372075   -0.05552971    2.70372104   1       5  Si
    4.08479710    1.32519505    4.08479552   1       6  Si
   -0.05552960    2.70372073    2.70372086   1       7  Si
    1.32519517    4.08479687    4.08479561   1       8  Si

outcell: Unit cell vectors (Ang):
        5.525115    0.001713    0.001713
        0.001713    5.525115    0.001713
        0.001713    0.001713    5.525115

outcell: Cell vector modules (Ang)   :    5.525115    5.525115    5.525116
outcell: Cell angles (23,13,12) (deg):     89.9645     89.9645     89.9645
outcell: Cell volume (Ang**3)        :    168.6645

coxmol: Writing XMOL coordinates into file si.xyz                                                          
Writing WFSX for selected k-points in si.selected.WFSX

writewave: Wave Functions Coefficients

     Number of k-points =        1
        Number of Spins =        1
   Number of basis orbs =      104


                                                                  ******
            k-point =        1    0.000000  0.000000  0.000000
     Spin component =        1
 Num. wavefunctions =       50
Use readwfsx utility to print wavefunction coefficients from WFSX file
Computing bands...

siesta: Band k vectors (Bohr**-1):
  ik           k
   1    0.296868    0.296868    0.296868
   2    0.284993    0.284993    0.284993
   3    0.273118    0.273118    0.273118
   4    0.261243    0.261243    0.261243
   5    0.249369    0.249369    0.249369
   6    0.237494    0.237494    0.237494
   7    0.225619    0.225619    0.225619
   8    0.213745    0.213745    0.213745
   9    0.201870    0.201870    0.201870
  10    0.189995    0.189995    0.189995
  11    0.178121    0.178121    0.178121
  12    0.166246    0.166246    0.166246
  13    0.154371    0.154371    0.154371
  14    0.142496    0.142496    0.142496
  15    0.130622    0.130622    0.130622
  16    0.118747    0.118747    0.118747
  17    0.106872    0.106872    0.106872
  18    0.094998    0.094998    0.094998
  19    0.083123    0.083123    0.083123
  20    0.071248    0.071248    0.071248
  21    0.059374    0.059374    0.059374
  22    0.047499    0.047499    0.047499
  23    0.035624    0.035624    0.035624
  24    0.023749    0.023749    0.023749
  25    0.011875    0.011875    0.011875
  26    0.000000    0.000000    0.000000
  27    0.019791    0.000000    0.000000
  28    0.039582    0.000000    0.000000
  29    0.059374    0.000000    0.000000
  30    0.079165    0.000000    0.000000
  31    0.098956    0.000000    0.000000
  32    0.118747    0.000000    0.000000
  33    0.138538    0.000000    0.000000
  34    0.158329    0.000000    0.000000
  35    0.178121    0.000000    0.000000
  36    0.197912    0.000000    0.000000
  37    0.217703    0.000000    0.000000
  38    0.237494    0.000000    0.000000
  39    0.257285    0.000000    0.000000
  40    0.277076    0.000000    0.000000
  41    0.296868    0.000000    0.000000
  42    0.316659    0.000000    0.000000
  43    0.336450    0.000000    0.000000
  44    0.356241    0.000000    0.000000
  45    0.376032    0.000000    0.000000
  46    0.395823    0.000000    0.000000
  47    0.415615    0.000000    0.000000
  48    0.435406    0.000000    0.000000
  49    0.455197    0.000000    0.000000
  50    0.474988    0.000000    0.000000
  51    0.494779    0.000000    0.000000
  52    0.514571    0.000000    0.000000
  53    0.534362    0.000000    0.000000
  54    0.554153    0.000000    0.000000
  55    0.573944    0.000000    0.000000
  56    0.593735    0.000000    0.000000
  57    0.593735    0.014843    0.014843
  58    0.593735    0.029687    0.029687
  59    0.593735    0.044530    0.044530
  60    0.593735    0.059374    0.059374
  61    0.593735    0.074217    0.074217
  62    0.593735    0.089060    0.089060
  63    0.593735    0.103904    0.103904
  64    0.593735    0.118747    0.118747
  65    0.593735    0.133590    0.133590
  66    0.593735    0.148434    0.148434
  67    0.576771    0.144193    0.144193
  68    0.559807    0.139952    0.139952
  69    0.542844    0.135711    0.135711
  70    0.525880    0.131470    0.131470
  71    0.508916    0.127229    0.127229
  72    0.491952    0.122988    0.122988
  73    0.474988    0.118747    0.118747
  74    0.458024    0.114506    0.114506
  75    0.441060    0.110265    0.110265
  76    0.424097    0.106024    0.106024
  77    0.407133    0.101783    0.101783
  78    0.390169    0.097542    0.097542
  79    0.373205    0.093301    0.093301
  80    0.356241    0.089060    0.089060
  81    0.339277    0.084819    0.084819
  82    0.322313    0.080578    0.080578
  83    0.305350    0.076337    0.076337
  84    0.288386    0.072096    0.072096
  85    0.271422    0.067855    0.067855
  86    0.254458    0.063614    0.063614
  87    0.237494    0.059374    0.059374
  88    0.220530    0.055133    0.055133
  89    0.203566    0.050892    0.050892
  90    0.186602    0.046651    0.046651
  91    0.169639    0.042410    0.042410
  92    0.152675    0.038169    0.038169
  93    0.135711    0.033928    0.033928
  94    0.118747    0.029687    0.029687
  95    0.101783    0.025446    0.025446
  96    0.084819    0.021205    0.021205
  97    0.067855    0.016964    0.016964
  98    0.050892    0.012723    0.012723
  99    0.033928    0.008482    0.008482
 100    0.016964    0.004241    0.004241
 101    0.000000    0.000000    0.000000

siesta: Band energies (eV):
  ik is    eps
   1  1 -14.85 -14.84 -14.84 -14.84 -12.19 -12.18 -12.18 -12.18  -6.60  -6.60
         -6.60  -6.59  -6.59  -6.58  -6.57  -6.57  -4.00  -4.00  -4.00  -3.99
         -1.94  -1.94  -1.93  -1.93  -1.93  -1.93  -1.92  -1.92   3.50   3.50
          3.50   3.53   5.52   5.52   5.53   5.54   5.54   5.60   5.60   5.60
          5.90   5.95   5.95   5.95   6.06   6.06   6.06   6.06   6.06   6.07
          6.08   6.08   8.33   8.33   8.33   8.33  16.39  16.40  16.40  16.40
         17.35  17.35  17.35  17.35  17.35  17.37  17.38  17.38  19.33  19.33
         19.34  19.36  19.36  19.36  19.36  19.36  19.90  19.91  19.91  19.91
         28.81  28.81  28.81  28.83  28.83  28.83  28.85  28.85  65.38  65.55
         65.55  65.59  77.33  77.33  77.37  78.14  78.14  78.22  78.90  78.90
        115.78 115.85 115.85 116.38
   2  1 -14.88 -14.84 -14.84 -14.84 -12.17 -12.17 -12.17 -12.14  -6.66  -6.66
         -6.66  -6.60  -6.60  -6.60  -6.57  -6.57  -3.99  -3.94  -3.94  -3.94
         -1.95  -1.95  -1.95  -1.92  -1.92  -1.90  -1.90  -1.90   3.47   3.47
          3.47   3.51   5.11   5.11   5.11   5.21   5.21   5.58   5.58   5.58
          5.81   6.00   6.00   6.00   6.09   6.09   6.09   6.42   6.42   6.51
          6.51   6.51   8.35   8.35   8.35   8.40  16.30  16.39  16.39  16.39
         17.23  17.23  17.27  17.27  17.27  17.35  17.35  17.35  19.30  19.30
         19.30  19.35  19.35  19.35  19.43  19.43  19.58  19.58  19.58  20.03
         28.74  28.74  28.74  28.85  28.85  28.85  28.89  28.89  64.19  65.23
         65.23  65.23  71.12  71.12  71.12  75.55  75.55  75.60  78.70  78.70
        113.41 115.69 115.69 115.69
   3  1 -14.95 -14.83 -14.83 -14.83 -12.15 -12.15 -12.15 -12.03  -6.80  -6.80
         -6.80  -6.64  -6.64  -6.64  -6.56  -6.56  -3.97  -3.80  -3.80  -3.80
         -1.97  -1.97  -1.97  -1.91  -1.91  -1.84  -1.83  -1.83   3.38   3.38
          3.38   3.49   4.71   4.71   4.71   4.83   4.83   5.54   5.54   5.54
          5.65   6.06   6.06   6.06   6.15   6.16   6.16   6.85   6.85   7.04
          7.04   7.04   8.40   8.40   8.40   8.53  16.15  16.32  16.32  16.32
         17.00  17.00  17.10  17.11  17.11  17.30  17.30  17.30  18.97  18.97
         18.97  19.21  19.21  19.21  19.36  19.37  19.37  19.58  19.58  20.29
         28.53  28.54  28.54  28.96  28.96  28.97  28.97  28.97  60.91  60.91
         60.91  61.57  67.15  67.16  67.16  70.94  70.94  70.97  78.35  78.35
        108.26 110.10 110.10 110.11
   4  1 -15.05 -14.82 -14.82 -14.82 -12.12 -12.12 -12.12 -11.88  -6.98  -6.98
         -6.98  -6.69  -6.69  -6.69  -6.55  -6.55  -3.96  -3.63  -3.63  -3.63
         -2.00  -2.00  -2.00  -1.90  -1.90  -1.73  -1.73  -1.73   3.19   3.19
          3.19   3.45   4.42   4.42   4.42   4.46   4.46   5.44   5.50   5.50
          5.50   6.14   6.14   6.14   6.24   6.24   6.24   7.30   7.30   7.57
          7.57   7.57   8.51   8.51   8.51   8.68  15.97  16.16  16.16  16.16
         16.69  16.69  16.86  16.86  16.86  17.26  17.26  17.26  18.38  18.38
         18.38  19.08  19.08  19.08  19.36  19.36  19.36  19.75  19.75  20.64
         28.22  28.22  28.22  29.07  29.07  29.20  29.20  29.20  53.98  53.98
         53.98  57.82  65.96  65.96  65.98  67.05  67.06  67.06  77.79  77.79
        100.74 100.74 100.74 102.62
   5  1 -15.16 -14.80 -14.80 -14.80 -12.09 -12.09 -12.09 -11.69  -7.19  -7.19
         -7.19  -6.76  -6.76  -6.76  -6.53  -6.53  -3.93  -3.45  -3.45  -3.45
         -2.01  -2.01  -2.01  -1.89  -1.89  -1.59  -1.59  -1.59   2.88   2.88
          2.88   3.38   4.10   4.10   4.28   4.28   4.28   5.23   5.46   5.46
          5.46   6.25   6.25   6.25   6.33   6.34   6.34   7.76   7.76   8.04
          8.04   8.04   8.71   8.72   8.72   8.81  15.81  15.88  15.88  15.88
         16.34  16.34  16.55  16.55  16.55  17.23  17.23  17.23  17.95  17.95
         17.95  18.90  18.90  18.90  19.38  19.38  19.38  19.94  19.94  21.05
         27.80  27.80  27.80  29.21  29.21  29.56  29.56  29.56  48.09  48.10
         48.10  53.52  61.69  61.69  61.71  67.17  67.18  67.18  77.05  77.05
         92.13  92.13  92.13  97.53
   6  1 -15.29 -14.78 -14.78 -14.78 -12.04 -12.04 -12.04 -11.47  -7.41  -7.41
         -7.41  -6.84  -6.84  -6.83  -6.50  -6.50  -3.90  -3.31  -3.31  -3.31
         -1.96  -1.96  -1.96  -1.87  -1.87  -1.42  -1.42  -1.42   2.47   2.47
          2.47   3.27   3.76   3.76   4.24   4.24   4.24   5.05   5.42   5.42
          5.42   6.37   6.37   6.37   6.44   6.44   6.44   8.23   8.23   8.33
          8.33   8.33   8.90   9.12   9.12   9.12  15.51  15.51  15.51  15.70
         15.95  15.95  16.20  16.20  16.20  17.13  17.13  17.13  17.76  17.76
         17.76  18.68  18.68  18.68  19.42  19.42  19.42  20.11  20.11  21.51
         27.28  27.28  27.28  29.37  29.37  30.02  30.02  30.02  43.28  43.28
         43.28  49.24  58.53  58.53  58.54  67.03  67.04  67.04  76.14  76.14
         86.22  86.22  86.22  93.18
   7  1 -15.43 -14.76 -14.76 -14.76 -11.99 -11.99 -11.99 -11.22  -7.64  -7.64
         -7.64  -6.92  -6.92  -6.92  -6.47  -6.47  -3.86  -3.23  -3.23  -3.23
         -1.85  -1.85  -1.84  -1.83  -1.83  -1.23  -1.23  -1.23   2.03   2.03
          2.03   3.13   3.44   3.44   4.26   4.26   4.26   4.91   5.39   5.39
          5.39   6.49   6.49   6.49   6.55   6.55   6.55   8.51   8.51   8.51
          8.69   8.69   8.91   9.67   9.67   9.67  15.11  15.11  15.11  15.56
         15.56  15.64  15.82  15.82  15.82  16.96  16.96  16.96  17.78  17.79
         17.79  18.42  18.42  18.42  19.49  19.49  19.49  20.26  20.26  22.00
         26.70  26.70  26.70  29.55  29.55  30.57  30.57  30.57  39.39  39.39
         39.39  45.40  56.44  56.44  56.45  66.41  66.42  66.42  75.12  75.12
         82.96  82.96  82.96  89.39
   8  1 -15.57 -14.73 -14.72 -14.72 -11.93 -11.93 -11.93 -10.96  -7.87  -7.87
         -7.87  -7.02  -7.02  -7.02  -6.43  -6.43  -3.82  -3.23  -3.23  -3.23
         -1.83  -1.83  -1.62  -1.62  -1.62  -1.00  -1.00  -1.00   1.57   1.57
          1.57   2.93   3.14   3.14   4.31   4.32   4.32   4.83   5.36   5.36
          5.36   6.61   6.61   6.61   6.66   6.66   6.66   8.66   8.66   8.66
          8.84   9.13   9.13  10.26  10.26  10.26  14.71  14.71  14.71  15.18
         15.18  15.43  15.43  15.43  15.65  16.79  16.79  16.79  17.90  17.90
         17.90  18.13  18.13  18.13  19.59  19.59  19.59  20.40  20.40  22.54
         26.06  26.06  26.06  29.74  29.74  31.15  31.15  31.15  36.29  36.29
         36.29  42.17  55.26  55.26  55.27  65.31  65.32  65.32  74.09  74.09
         81.56  81.56  81.56  85.88
   9  1 -15.71 -14.69 -14.69 -14.69 -11.87 -11.87 -11.87 -10.67  -8.09  -8.09
         -8.09  -7.12  -7.12  -7.12  -6.38  -6.38  -3.77  -3.29  -3.29  -3.29
         -1.82  -1.82  -1.34  -1.34  -1.34  -0.76  -0.76  -0.76   1.10   1.10
          1.10   2.69   2.87   2.87   4.39   4.39   4.39   4.81   5.35   5.35
          5.35   6.73   6.73   6.73   6.77   6.77   6.77   8.70   8.81   8.81
          8.81   9.55   9.55  10.85  10.85  10.86  14.31  14.31  14.31  14.83
         14.83  15.03  15.03  15.03  15.71  16.64  16.64  16.64  17.80  17.81
         17.81  18.04  18.04  18.04  19.74  19.74  19.74  20.52  20.52  23.13
         25.41  25.41  25.41  29.95  29.95  31.61  31.61  31.61  33.94  33.95
         33.95  39.56  54.78  54.78  54.79  63.85  63.85  63.85  73.15  73.15
         81.12  81.13  81.13  82.49
  10  1 -15.85 -14.65 -14.64 -14.64 -11.81 -11.81 -11.81 -10.37  -8.30  -8.30
         -8.30  -7.22  -7.22  -7.22  -6.33  -6.33  -3.71  -3.38  -3.38  -3.37
         -1.81  -1.81  -1.01  -1.01  -1.01  -0.49  -0.49  -0.49   0.64   0.64
          0.64   2.42   2.63   2.63   4.47   4.48   4.48   4.83   5.34   5.34
          5.34   6.83   6.83   6.83   6.88   6.88   6.88   8.47   8.99   8.99
          8.99   9.89   9.89  11.44  11.44  11.44  13.91  13.91  13.91  14.55
         14.55  14.63  14.63  14.63  15.81  16.53  16.53  16.53  17.46  17.46
         17.46  18.18  18.18  18.18  19.91  19.91  19.91  20.62  20.62  23.76
         24.76  24.76  24.76  30.16  30.16  31.13  31.13  31.13  32.97  32.98
         32.98  37.54  54.83  54.83  54.83  62.04  62.04  62.04  72.44  72.44
         79.11  80.99  81.00  81.00
  11  1 -15.98 -14.60 -14.60 -14.60 -11.76 -11.76 -11.76 -10.06  -8.49  -8.49
         -8.49  -7.32  -7.32  -7.31  -6.28  -6.28  -3.65  -3.48  -3.48  -3.48
         -1.82  -1.82  -0.65  -0.65  -0.65  -0.20  -0.20  -0.20   0.17   0.17
          0.17   2.12   2.42   2.42   4.57   4.57   4.57   4.88   5.34   5.34
          5.34   6.92   6.92   6.93   6.98   6.98   6.98   8.20   9.19   9.19
          9.19  10.13  10.13  12.00  12.00  12.00  13.51  13.51  13.51  14.23
         14.24  14.24  14.40  14.40  15.93  16.46  16.46  16.46  17.10  17.10
         17.10  18.31  18.31  18.31  20.12  20.12  20.12  20.69  20.69  24.11
         24.11  24.11  24.38  29.71  29.71  29.71  30.39  30.39  33.19  33.19
         33.19  36.04  55.27  55.27  55.27  59.81  59.81  59.81  72.07  72.07
         75.74  80.78  80.78  80.78
  12  1 -16.11 -14.54 -14.54 -14.54 -11.72 -11.72 -11.72  -9.73  -8.65  -8.65
         -8.65  -7.41  -7.41  -7.41  -6.22  -6.22  -3.60  -3.59  -3.59  -3.58
         -1.83  -1.83  -0.28  -0.28  -0.28  -0.27  -0.27  -0.27   0.10   0.10
          0.10   1.81   2.24   2.24   4.66   4.66   4.66   4.96   5.34   5.34
          5.34   7.00   7.00   7.00   7.07   7.07   7.07   7.88   9.43   9.44
          9.44  10.22  10.22  12.50  12.50  12.50  13.12  13.13  13.13  13.84
         13.84  13.84  14.40  14.40  16.08  16.44  16.44  16.44  16.74  16.74
         16.74  18.42  18.42  18.42  20.34  20.34  20.34  20.75  20.75  23.48
         23.48  23.48  24.90  28.39  28.39  28.39  30.64  30.64  33.44  33.44
         33.44  35.08  55.98  55.98  55.99  57.10  57.10  57.10  72.16  72.16
         72.44  80.30  80.31  80.31
  13  1 -16.23 -14.48 -14.48 -14.48 -11.69 -11.69 -11.69  -9.39  -8.78  -8.78
         -8.78  -7.51  -7.51  -7.51  -6.16  -6.16  -3.71  -3.71  -3.71  -3.51
         -1.86  -1.86  -0.73  -0.73  -0.73   0.12   0.12   0.12   0.42   0.42
          0.42   1.49   2.11   2.11   4.76   4.76   4.76   5.05   5.36   5.36
          5.36   7.06   7.06   7.06   7.16   7.16   7.16   7.54   9.73   9.73
          9.73  10.15  10.15  12.54  12.54  12.54  13.17  13.17  13.17  13.43
         13.44  13.44  14.58  14.58  16.25  16.39  16.39  16.39  16.47  16.47
         16.47  18.50  18.50  18.50  20.58  20.58  20.58  20.79  20.79  22.87
         22.87  22.87  25.15  27.26  27.26  27.26  30.92  30.92  33.51  33.51
         33.51  34.68  54.00  54.00  54.00  56.90  56.90  56.90  69.33  72.84
         72.84  79.54  79.54  79.54
  14  1 -16.34 -14.41 -14.41 -14.41 -11.69 -11.69 -11.69  -9.05  -8.87  -8.87
         -8.87  -7.60  -7.60  -7.60  -6.09  -6.09  -3.82  -3.82  -3.82  -3.44
         -1.90  -1.90  -1.17  -1.17  -1.17   0.52   0.52   0.52   0.75   0.75
          0.75   1.16   2.01   2.01   4.85   4.85   4.85   5.13   5.38   5.38
          5.38   7.10   7.10   7.10   7.21   7.23   7.23   7.23   9.95   9.95
         10.07  10.07  10.07  12.13  12.13  12.13  13.02  13.02  13.02  13.62
         13.62  13.62  14.92  14.92  16.06  16.06  16.06  16.43  16.52  16.52
         16.52  18.55  18.55  18.55  20.82  20.82  20.82  20.82  20.82  22.28
         22.28  22.28  25.03  26.30  26.30  26.30  31.22  31.22  33.37  33.37
         33.38  34.84  50.71  50.71  50.71  57.94  57.94  57.94  66.56  74.22
         74.22  78.54  78.54  78.54
  15  1 -16.45 -14.34 -14.34 -14.34 -11.71 -11.71 -11.71  -8.93  -8.93  -8.93
         -8.70  -7.68  -7.68  -7.68  -6.02  -6.02  -3.93  -3.93  -3.93  -3.35
         -1.97  -1.97  -1.59  -1.59  -1.59   0.82   0.93   0.93   0.93   1.09
          1.09   1.09   1.95   1.95   4.94   4.94   4.94   5.18   5.41   5.41
          5.41   6.90   7.12   7.12   7.13   7.29   7.29   7.29   9.65   9.65
         10.45  10.45  10.45  11.70  11.70  11.70  12.58  12.59  12.59  14.08
         14.08  14.08  15.35  15.35  15.77  15.77  15.77  16.60  16.60  16.60
         16.64  18.57  18.57  18.57  20.83  20.83  21.04  21.04  21.04  21.72
         21.72  21.72  24.54  25.49  25.49  25.49  31.56  31.56  33.05  33.05
         33.05  35.40  47.50  47.50  47.50  59.05  59.05  59.06  64.34  76.44
         76.44  77.38  77.39  77.39
  16  1 -16.55 -14.25 -14.25 -14.25 -11.76 -11.76 -11.76  -8.94  -8.94  -8.94
         -8.34  -7.76  -7.76  -7.76  -5.94  -5.94  -4.03  -4.03  -4.03  -3.27
         -2.04  -2.04  -1.99  -1.99  -1.99   0.48   1.34   1.34   1.34   1.45
          1.45   1.45   1.93   1.93   5.02   5.02   5.02   5.19   5.45   5.45
          5.45   6.65   7.14   7.14   7.14   7.33   7.33   7.33   9.31   9.31
         10.77  10.77  10.77  11.36  11.36  11.36  12.13  12.13  12.13  14.52
         14.52  14.52  15.53  15.53  15.53  15.84  15.84  16.70  16.70  16.70
         16.86  18.57  18.57  18.57  20.83  20.83  21.19  21.19  21.19  21.24
         21.24  21.24  23.79  24.81  24.81  24.81  31.92  31.92  32.58  32.58
         32.58  36.08  44.60  44.60  44.60  60.20  60.20  60.21  62.93  76.14
         76.15  76.15  79.65  79.65
  17  1 -16.64 -14.17 -14.17 -14.17 -11.84 -11.84 -11.84  -8.92  -8.92  -8.92
         -7.97  -7.83  -7.83  -7.83  -5.86  -5.86  -4.13  -4.13  -4.13  -3.18
         -2.38  -2.38  -2.38  -2.13  -2.13   0.13   1.75   1.75   1.75   1.81
          1.81   1.81   1.94   1.94   5.09   5.10   5.10   5.11   5.49   5.49
          5.49   6.50   7.14   7.14   7.14   7.37   7.37   7.37   8.94   8.94
         10.63  10.63  10.63  11.51  11.51  11.51  11.65  11.65  11.65  14.92
         14.92  14.92  15.35  15.35  15.35  16.36  16.36  16.80  16.80  16.80
         17.09  18.55  18.55  18.55  20.68  20.68  20.68  20.81  20.81  21.38
         21.38  21.38  22.89  24.22  24.22  24.22  32.04  32.04  32.04  32.30
         32.30  36.53  42.11  42.11  42.11  61.35  61.35  61.36  62.57  74.88
         74.89  74.89  83.99  83.99
  18  1 -16.72 -14.07 -14.07 -14.07 -11.94 -11.94 -11.94  -8.86  -8.86  -8.86
         -7.90  -7.90  -7.90  -7.61  -5.79  -5.79  -4.21  -4.21  -4.21  -3.10
         -2.75  -2.75  -2.75  -2.24  -2.24  -0.22   1.98   1.98   2.16   2.16
          2.16   2.17   2.17   2.17   4.96   5.18   5.18   5.18   5.54   5.54
          5.54   6.45   7.14   7.14   7.14   7.38   7.38   7.38   8.57   8.57
         10.21  10.21  10.21  11.15  11.15  11.15  11.96  11.96  11.96  15.22
         15.22  15.22  15.28  15.28  15.28  16.87  16.87  16.91  16.91  16.91
         17.31  18.52  18.52  18.52  20.20  20.21  20.21  20.77  20.77  21.45
         21.45  21.45  21.96  23.73  23.73  23.73  31.52  31.52  31.52  32.68
         32.68  36.56  40.07  40.07  40.07  62.48  62.48  62.48  63.48  73.65
         73.65  73.65  89.60  89.60
  19  1 -16.79 -13.97 -13.97 -13.97 -12.06 -12.06 -12.06  -8.77  -8.77  -8.77
         -7.96  -7.96  -7.96  -7.24  -5.71  -5.71  -4.29  -4.29  -4.29  -3.10
         -3.10  -3.10  -3.01  -2.34  -2.34  -0.57   2.05   2.05   2.54   2.54
          2.54   2.56   2.56   2.56   4.78   5.26   5.26   5.26   5.60   5.60
          5.60   6.47   7.13   7.13   7.13   7.39   7.39   7.39   8.21   8.21
          9.77   9.77   9.77  10.64  10.64  10.64  12.44  12.44  12.44  15.14
         15.14  15.14  15.58  15.58  15.59  17.00  17.00  17.00  17.36  17.36
         17.51  18.49  18.49  18.49  19.76  19.76  19.76  20.72  20.72  21.08
         21.42  21.42  21.42  23.30  23.30  23.30  31.11  31.11  31.11  33.04
         33.04  36.16  38.42  38.42  38.42  63.55  63.55  63.55  65.67  72.47
         72.47  72.47  96.57  96.57
  20  1 -16.85 -13.86 -13.86 -13.86 -12.19 -12.19 -12.19  -8.67  -8.67  -8.67
         -8.01  -8.01  -8.01  -6.88  -5.63  -5.63  -4.36  -4.36  -4.36  -3.42
         -3.42  -3.42  -2.94  -2.45  -2.45  -0.92   2.14   2.14   2.90   2.90
          2.90   2.94   2.94   2.94   4.61   5.34   5.34   5.34   5.66   5.66
          5.66   6.51   7.11   7.11   7.12   7.39   7.39   7.39   7.87   7.87
          9.33   9.33   9.33  10.13  10.13  10.13  12.94  12.94  12.94  15.11
         15.12  15.12  15.83  15.83  15.83  17.08  17.08  17.08  17.62  17.81
         17.81  18.45  18.45  18.45  19.35  19.35  19.35  20.35  20.65  20.65
         21.31  21.31  21.31  22.93  22.93  22.93  30.88  30.88  30.89  33.37
         33.37  35.48  37.10  37.10  37.10  64.54  64.54  64.54  69.14  71.36
         71.37  71.37 104.88 104.88
  21  1 -16.90 -13.75 -13.75 -13.75 -12.33 -12.33 -12.33  -8.55  -8.55  -8.55
         -8.06  -8.06  -8.06  -6.53  -5.56  -5.56  -4.41  -4.41  -4.41  -3.71
         -3.71  -3.71  -2.87  -2.55  -2.55  -1.27   2.24   2.24   3.25   3.25
          3.25   3.31   3.31   3.31   4.50   5.44   5.44   5.44   5.73   5.73
          5.73   6.57   7.10   7.10   7.10   7.39   7.39   7.39   7.57   7.57
          8.89   8.89   8.89   9.63   9.63   9.63  13.44  13.44  13.44  15.13
         15.13  15.13  16.01  16.01  16.02  17.13  17.13  17.13  17.56  18.24
         18.24  18.39  18.39  18.39  18.97  18.98  18.98  19.86  20.57  20.57
         21.17  21.17  21.17  22.60  22.60  22.60  30.86  30.86  30.86  33.67
         33.67  34.74  36.03  36.03  36.03  65.44  65.44  65.44  70.35  70.35
         70.35  74.01 114.29 114.29
  22  1 -16.94 -13.62 -13.62 -13.62 -12.48 -12.48 -12.48  -8.44  -8.44  -8.44
         -8.09  -8.09  -8.09  -6.19  -5.50  -5.50  -4.46  -4.46  -4.46  -3.96
         -3.96  -3.96  -2.81  -2.64  -2.64  -1.59   2.33   2.33   3.57   3.57
          3.57   3.64   3.64   3.64   4.48   5.55   5.55   5.55   5.81   5.81
          5.81   6.62   7.09   7.09   7.09   7.29   7.29   7.39   7.39   7.39
          8.47   8.47   8.47   9.15   9.15   9.15  13.93  13.93  13.93  15.17
         15.17  15.17  16.14  16.14  16.14  17.13  17.13  17.13  17.30  18.30
         18.31  18.31  18.62  18.62  18.65  18.65  18.65  19.68  20.46  20.46
         21.05  21.05  21.05  22.30  22.30  22.30  31.02  31.02  31.03  33.91
         33.91  34.14  35.15  35.15  35.15  66.21  66.21  66.21  69.46  69.46
         69.46  80.88 124.28 124.28
  23  1 -16.97 -13.50 -13.50 -13.50 -12.63 -12.63 -12.63  -8.33  -8.33  -8.33
         -8.12  -8.12  -8.12  -5.88  -5.44  -5.44  -4.49  -4.49  -4.49  -4.17
         -4.17  -4.17  -2.78  -2.72  -2.72  -1.87   2.43   2.43   3.86   3.86
          3.86   3.91   3.91   3.91   4.60   5.69   5.69   5.69   5.90   5.90
          5.90   6.67   7.07   7.07   7.09   7.09   7.09   7.40   7.40   7.40
          8.07   8.07   8.07   8.70   8.70   8.70  14.40  14.40  14.40  15.22
         15.22  15.22  16.22  16.22  16.22  16.95  17.07  17.07  17.07  18.19
         18.19  18.19  18.37  18.37  18.37  18.96  18.96  19.70  20.34  20.34
         21.01  21.01  21.01  22.03  22.03  22.03  31.33  31.33  31.33  33.81
         34.11  34.11  34.41  34.41  34.41  66.84  66.84  66.84  68.71  68.72
         68.72  91.36 133.99 133.99
  24  1 -16.99 -13.36 -13.36 -13.36 -12.79 -12.78 -12.78  -8.25  -8.25  -8.25
         -8.14  -8.14  -8.14  -5.62  -5.40  -5.40  -4.52  -4.52  -4.52  -4.34
         -4.34  -4.34  -2.79  -2.78  -2.78  -2.08   2.50   2.50   4.08   4.09
          4.09   4.12   4.12   4.12   4.85   5.86   5.86   5.86   5.98   5.98
          5.98   6.72   6.90   6.90   7.09   7.09   7.09   7.44   7.44   7.44
          7.70   7.70   7.70   8.29   8.29   8.29  14.84  14.84  14.84  15.28
         15.28  15.28  16.28  16.28  16.28  16.63  16.91  16.91  16.91  18.07
         18.07  18.07  18.16  18.16  18.16  19.26  19.26  19.78  20.19  20.19
         21.06  21.06  21.06  21.78  21.78  21.78  31.72  31.72  31.72  33.75
         33.77  33.77  33.84  34.25  34.25  67.31  67.31  67.31  68.15  68.16
         68.16 108.62 142.26 142.26
  25  1 -17.00 -13.23 -13.22 -13.22 -12.93 -12.93 -12.93  -8.19  -8.19  -8.19
         -8.16  -8.16  -8.16  -5.44  -5.37  -5.37  -4.52  -4.52  -4.52  -4.45
         -4.45  -4.45  -2.81  -2.81  -2.81  -2.21   2.55   2.55   4.23   4.23
          4.23   4.25   4.25   4.25   5.16   6.01   6.01   6.01   6.06   6.06
          6.06   6.75   6.79   6.79   7.11   7.11   7.11   7.40   7.40   7.40
          7.53   7.53   7.53   7.95   7.95   7.95  15.18  15.18  15.18  15.33
         15.33  15.33  16.34  16.34  16.34  16.42  16.68  16.68  16.68  18.00
         18.00  18.00  18.02  18.02  18.02  19.52  19.52  19.86  20.03  20.03
         21.18  21.18  21.18  21.55  21.55  21.55  32.18  32.18  32.18  33.20
         33.20  33.20  34.05  34.33  34.33  67.58  67.58  67.60  67.80  67.81
         67.81 134.52 147.88 147.88
  26  1 -17.01 -13.09 -13.08 -13.08 -13.08 -13.08 -13.08  -8.17  -8.17  -8.17
         -8.16  -8.16  -8.16  -5.38  -5.36  -5.36  -4.51  -4.51  -4.51  -4.50
         -4.50  -4.49  -2.83  -2.83  -2.83  -2.24   2.57   2.57   4.28   4.28
          4.28   4.29   4.29   4.29   5.30   6.08   6.08   6.08   6.09   6.09
          6.09   6.76   6.76   6.77   7.20   7.20   7.20   7.20   7.20   7.20
          7.69   7.69   7.69   7.70   7.70   7.70  15.33  15.33  15.33  15.34
         15.35  15.35  16.34  16.46  16.46  16.46  16.47  16.47  16.48  17.97
         17.97  17.97  17.98  17.98  17.98  19.67  19.67  19.88  19.91  19.91
         21.34  21.34  21.34  21.36  21.36  21.36  32.65  32.66  32.66  32.68
         32.68  32.69  34.19  34.36  34.36  67.63  67.63  67.67  67.69  67.74
         67.74 149.87 149.87 151.47
  27  1 -17.00 -13.32 -13.08 -13.08 -13.08 -13.08 -12.84  -8.18  -8.18  -8.17
         -8.17  -8.17  -8.16  -5.41  -5.39  -5.38  -4.56  -4.49  -4.49  -4.47
         -4.47  -4.43  -2.84  -2.80  -2.80  -2.21   2.53   2.57   4.22   4.23
          4.25   4.25   4.26   4.26   5.16   5.98   5.98   5.99   5.99   6.15
          6.15   6.76   6.76   6.81   6.95   7.27   7.27   7.28   7.28   7.35
          7.43   7.75   7.75   7.77   7.77   8.06  15.24  15.25  15.26  15.26
         15.28  15.28  16.15  16.41  16.53  16.53  16.55  16.55  16.75  17.97
         17.97  17.97  17.98  18.08  18.08  19.47  19.64  19.85  19.87  20.12
         21.08  21.34  21.34  21.36  21.36  21.70  31.86  32.65  32.66  32.68
         32.68  33.58  34.01  34.13  34.58  67.60  67.62  67.71  67.72  67.77
         67.77 139.12 145.25 146.28
  28  1 -17.00 -13.55 -13.08 -13.08 -13.07 -13.07 -12.59  -8.22  -8.22  -8.21
         -8.21  -8.15  -8.14  -5.51  -5.45  -5.44  -4.61  -4.42  -4.42  -4.40
         -4.40  -4.35  -2.87  -2.73  -2.73  -2.11   2.43   2.59   4.06   4.07
          4.14   4.14   4.15   4.15   4.85   5.78   5.78   5.79   5.79   6.32
          6.32   6.69   6.77   6.78   6.94   7.01   7.37   7.37   7.37   7.37
          7.62   7.98   7.98   8.00   8.00   8.43  14.99  15.00  15.10  15.10
         15.12  15.12  15.82  16.62  16.71  16.71  16.73  16.73  16.97  17.95
         17.95  17.96  17.96  18.36  18.36  19.22  19.55  19.73  19.75  20.43
         20.92  21.35  21.35  21.37  21.37  22.10  31.14  32.67  32.67  32.70
         32.70  33.36  33.47  34.60  35.38  67.43  67.45  67.85  67.85  67.91
         67.91 117.93 133.94 134.72
  29  1 -16.98 -13.78 -13.07 -13.07 -13.07 -13.07 -12.33  -8.28  -8.28  -8.27
         -8.27  -8.13  -8.12  -5.67  -5.54  -5.53  -4.64  -4.30  -4.30  -4.28
         -4.28  -4.26  -2.92  -2.61  -2.61  -1.96   2.26   2.62   3.84   3.84
          3.96   3.96   3.97   3.97   4.56   5.58   5.58   5.59   5.60   6.40
          6.55   6.55   6.69   6.79   6.80   7.14   7.42   7.42   7.43   7.43
[...]
         75.96  86.59  93.72  95.32
  93  1 -16.04 -15.39 -14.27 -13.94 -12.11 -11.74 -10.34  -9.47  -9.35  -9.16
         -8.17  -7.93  -7.74  -7.49  -7.26  -6.36  -3.20  -3.16  -2.76  -2.10
         -2.00  -1.61  -1.60  -0.85  -0.84  -0.65  -0.37  -0.29   0.60   0.67
          1.26   2.04   2.06   2.07   2.72   3.55   4.01   4.04   4.66   5.68
          5.80   5.84   7.71   7.84   8.33   8.46   9.00   9.39   9.48  10.20
         10.56  10.99  11.09  11.33  11.43  11.77  12.09  12.36  12.98  13.29
         14.00  14.17  14.45  14.47  14.66  15.50  15.86  16.11  16.33  17.00
         17.60  17.73  18.60  18.80  19.40  20.60  21.68  22.21  22.62  23.06
         23.22  23.56  24.52  24.90  26.05  26.31  31.49  35.89  37.34  39.24
         41.24  49.68  51.58  53.43  54.89  64.08  64.29  64.53  66.83  70.68
         76.08  86.64  93.81  95.26
  94  1 -15.84 -15.22 -14.35 -14.35 -12.00 -12.00 -10.98 -10.19  -8.77  -8.77
         -7.78  -7.47  -7.47  -7.18  -6.68  -6.66  -3.31  -3.18  -2.95  -2.95
         -2.07  -1.43  -1.43  -1.27  -1.23  -0.48  -0.26   0.47   0.47   0.69
          0.91   0.91   2.91   2.91   3.27   3.40   4.99   5.11   5.16   5.48
          5.51   5.51   6.50   6.50   7.30   8.30   8.91   9.15   9.15   9.18
          9.46   9.46  11.07  11.38  11.38  11.80  13.09  13.34  13.47  13.47
         13.52  14.54  14.98  14.98  16.05  16.05  16.27  16.46  17.13  17.35
         17.35  17.89  17.89  19.11  19.22  19.22  20.70  21.84  21.95  23.58
         24.39  24.39  25.05  26.96  27.48  27.48  31.79  32.66  35.13  35.13
         40.94  48.86  54.28  54.28  57.50  59.29  63.38  65.53  65.53  67.63
         84.26  87.71  87.71  93.90
  95  1 -15.45 -14.92 -14.92 -14.58 -12.01 -11.63 -11.63 -11.01  -8.32  -7.91
         -7.91  -7.20  -6.95  -6.92  -6.92  -6.38  -3.31  -3.18  -2.87  -2.87
         -2.08  -2.08  -1.76  -1.71  -1.32  -0.94  -0.83  -0.83   1.42   1.42
          2.18   2.41   2.57   3.24   3.60   4.05   4.05   4.43   4.43   4.77
          5.20   7.04   7.04   7.17   7.17   7.81   8.10   8.64   8.91   8.91
          8.94   9.29   9.33  10.06  10.50  10.50  13.80  14.06  14.06  15.04
         15.04  15.09  15.43  15.58  15.75  15.97  16.42  16.42  17.57  18.30
         18.30  18.37  18.89  18.89  19.32  19.63  20.43  20.43  21.06  21.46
         26.76  26.87  26.87  28.28  28.52  32.08  32.08  34.13  38.60  39.46
         39.46  45.80  54.59  54.60  58.07  58.83  60.85  73.25  73.25  78.43
         84.08  84.09  84.68 103.58
  96  1 -15.45 -14.93 -14.92 -14.58 -12.01 -11.63 -11.62 -11.00  -8.31  -7.91
         -7.90  -7.21  -6.96  -6.92  -6.91  -6.39  -3.33  -3.19  -2.87  -2.86
         -2.08  -2.07  -1.77  -1.72  -1.31  -0.94  -0.83  -0.82   1.43   1.44
          2.18   2.41   2.60   3.22   3.59   4.04   4.05   4.41   4.42   4.77
          5.22   7.02   7.03   7.15   7.15   7.80   8.11   8.62   8.91   8.92
          8.95   9.30   9.35  10.07  10.51  10.53  13.81  14.06  14.06  15.02
         15.04  15.10  15.45  15.61  15.76  15.97  16.38  16.40  17.56  18.31
         18.33  18.36  18.88  18.89  19.32  19.61  20.41  20.42  21.05  21.49
         26.74  26.85  26.90  28.24  28.52  32.07  32.09  34.11  38.56  39.43
         39.48  45.77  54.63  54.74  57.97  58.79  60.68  73.16  73.17  78.47
         83.98  84.08  84.70 102.83
  97  1 -15.45 -14.92 -14.92 -14.58 -12.02 -11.63 -11.63 -11.00  -8.31  -7.90
         -7.90  -7.22  -6.95  -6.92  -6.92  -6.38  -3.32  -3.18  -2.87  -2.87
         -2.09  -2.09  -1.77  -1.71  -1.30  -0.93  -0.82  -0.82   1.44   1.44
          2.19   2.42   2.58   3.22   3.59   4.04   4.04   4.41   4.41   4.76
          5.19   7.03   7.03   7.17   7.17   7.81   8.09   8.61   8.90   8.90
          8.95   9.31   9.34  10.08  10.53  10.53  13.83  14.07  14.07  15.06
         15.06  15.08  15.45  15.58  15.74  15.95  16.39  16.39  17.55  18.31
         18.31  18.36  18.90  18.90  19.31  19.63  20.42  20.42  21.05  21.48
         26.77  26.85  26.86  28.22  28.56  32.06  32.06  34.10  38.61  39.42
         39.42  45.84  54.51  54.51  58.02  58.85  60.76  73.18  73.18  78.33
         83.97  83.97  84.72 103.12
  98  1 -15.62 -15.02 -15.02 -14.51 -11.62 -11.00 -11.00 -10.21  -9.26  -8.79
         -8.79  -8.21  -7.07  -7.01  -7.01  -6.31  -3.29  -2.68  -2.43  -2.43
         -1.74  -1.74  -1.40  -1.17  -0.10  -0.10  -0.09   0.09   0.44   0.44
          0.71   1.25   1.71   2.15   2.46   2.72   2.72   4.25   4.25   5.34
          5.72   7.63   7.63   8.17   8.71   8.71   9.33   9.67   9.89   9.98
          9.98  10.66  11.06  11.71  11.71  12.01  12.69  12.85  12.86  12.86
         13.45  13.75  13.75  14.35  14.86  15.08  15.08  15.49  17.34  18.11
         18.11  19.17  19.75  19.89  19.89  20.36  21.45  21.45  21.71  22.26
         25.52  25.54  25.90  25.90  27.52  35.84  35.84  40.19  42.39  42.39
         48.54  51.80  51.80  53.15  57.73  59.35  60.43  68.67  68.67  78.39
         78.91  80.95  80.95  97.03
  99  1 -15.62 -15.02 -15.02 -14.51 -11.62 -11.00 -11.00 -10.22  -9.27  -8.79
         -8.79  -8.20  -7.07  -7.01  -7.01  -6.31  -3.29  -2.68  -2.43  -2.43
         -1.73  -1.73  -1.39  -1.16  -0.12  -0.12  -0.10   0.07   0.43   0.43
          0.70   1.24   1.73   2.16   2.45   2.73   2.73   4.25   4.25   5.35
          5.73   7.63   7.63   8.17   8.72   8.72   9.32   9.66   9.87  10.00
         10.00  10.67  11.08  11.69  11.69  11.99  12.68  12.83  12.83  12.85
         13.43  13.74  13.74  14.35  14.86  15.11  15.11  15.50  17.34  18.11
         18.11  19.19  19.75  19.89  19.89  20.37  21.46  21.46  21.71  22.25
         25.51  25.53  25.91  25.91  27.55  35.85  35.85  40.19  42.47  42.47
         48.58  51.71  51.71  53.20  57.77  59.42  60.31  68.83  68.84  78.37
         78.96  81.00  81.01  96.97
 100  1 -15.45 -14.92 -14.92 -14.58 -12.01 -11.63 -11.63 -11.01  -8.32  -7.91
         -7.91  -7.20  -6.95  -6.92  -6.92  -6.38  -3.31  -3.18  -2.87  -2.87
         -2.08  -2.08  -1.76  -1.71  -1.32  -0.94  -0.83  -0.83   1.42   1.42
          2.18   2.41   2.57   3.24   3.60   4.05   4.05   4.43   4.43   4.77
          5.20   7.04   7.04   7.17   7.17   7.81   8.10   8.64   8.91   8.91
          8.94   9.29   9.33  10.06  10.50  10.50  13.80  14.06  14.06  15.04
         15.04  15.09  15.43  15.58  15.75  15.97  16.42  16.42  17.57  18.30
         18.30  18.37  18.89  18.89  19.32  19.63  20.43  20.43  21.06  21.46
         26.76  26.87  26.87  28.28  28.52  32.08  32.08  34.13  38.60  39.46
         39.46  45.80  54.59  54.60  58.07  58.83  60.85  73.25  73.25  78.43
         84.08  84.09  84.68 103.58
 101  1 -15.15 -14.81 -14.80 -14.80 -12.09 -12.09 -12.09 -11.71  -7.16  -7.16
         -7.16  -6.75  -6.75  -6.75  -6.53  -6.53  -3.93  -3.47  -3.47  -3.47
         -2.01  -2.01  -2.01  -1.89  -1.89  -1.61  -1.61  -1.61   2.91   2.91
          2.92   3.39   4.14   4.14   4.29   4.29   4.29   5.25   5.46   5.46
          5.46   6.24   6.24   6.24   6.32   6.32   6.32   7.71   7.71   8.00
          8.00   8.00   8.68   8.69   8.69   8.80  15.83  15.91  15.91  15.91
         16.37  16.37  16.59  16.59  16.59  17.23  17.23  17.23  17.98  17.98
         17.98  18.92  18.92  18.92  19.37  19.38  19.38  19.92  19.92  21.01
         27.85  27.85  27.85  29.19  29.19  29.52  29.52  29.52  48.65  48.65
         48.65  53.97  62.08  62.08  62.10  67.17  67.18  67.18  77.13  77.13
         92.90  92.90  92.90  98.01
 102  1 -15.15 -14.81 -14.80 -14.80 -12.10 -12.09 -12.09 -11.71  -7.16  -7.16
         -7.15  -6.76  -6.76  -6.75  -6.54  -6.53  -3.95  -3.47  -3.47  -3.46
         -2.01  -2.01  -2.00  -1.90  -1.89  -1.61  -1.61  -1.60   2.92   2.93
          2.94   3.37   4.14   4.15   4.28   4.28   4.29   5.26   5.44   5.45
          5.45   6.22   6.22   6.22   6.30   6.31   6.31   7.72   7.74   8.00
          8.01   8.01   8.69   8.70   8.70   8.81  15.84  15.90  15.92  15.92
         16.38  16.40  16.58  16.60  16.60  17.20  17.21  17.21  17.95  17.98
         17.98  18.93  18.93  18.93  19.35  19.36  19.37  19.90  19.92  21.05
         27.83  27.83  27.87  29.15  29.16  29.52  29.53  29.56  48.58  48.59
         48.76  53.96  61.93  61.94  62.24  67.19  67.28  67.30  76.43  76.75
         92.76  92.85  92.89  97.82
 103  1 -15.45 -14.93 -14.92 -14.58 -12.01 -11.63 -11.62 -11.00  -8.31  -7.91
         -7.90  -7.21  -6.96  -6.92  -6.91  -6.39  -3.33  -3.19  -2.87  -2.86
         -2.08  -2.07  -1.77  -1.72  -1.31  -0.94  -0.83  -0.82   1.43   1.44
          2.18   2.41   2.60   3.22   3.59   4.04   4.05   4.41   4.42   4.77
          5.22   7.02   7.03   7.15   7.15   7.80   8.11   8.62   8.91   8.92
          8.95   9.30   9.35  10.07  10.51  10.53  13.81  14.06  14.06  15.02
         15.04  15.10  15.45  15.61  15.76  15.97  16.38  16.40  17.56  18.31
         18.33  18.36  18.88  18.89  19.32  19.61  20.41  20.42  21.05  21.49
         26.74  26.85  26.90  28.24  28.52  32.07  32.09  34.11  38.56  39.43
         39.48  45.77  54.63  54.74  57.97  58.79  60.68  73.16  73.17  78.47
         83.98  84.08  84.70 102.83
 104  1 -15.62 -15.03 -15.02 -14.51 -11.61 -11.01 -11.00 -10.21  -9.26  -8.79
         -8.78  -8.20  -7.08  -7.01  -7.00  -6.32  -3.30  -2.69  -2.43  -2.42
         -1.74  -1.73  -1.40  -1.17  -0.11  -0.10  -0.10   0.07   0.44   0.45
          0.70   1.24   1.72   2.15   2.47   2.73   2.74   4.22   4.23   5.36
          5.75   7.60   7.61   8.16   8.72   8.73   9.34   9.66   9.88   9.98
         10.00  10.67  11.07  11.69  11.70  12.01  12.70  12.83  12.84  12.86
         13.45  13.72  13.74  14.39  14.87  15.07  15.09  15.51  17.36  18.11
         18.13  19.16  19.73  19.89  19.90  20.37  21.45  21.46  21.70  22.26
         25.50  25.52  25.91  25.93  27.53  35.83  35.86  40.15  42.45  42.48
         48.43  51.86  51.90  53.24  57.61  59.39  60.41  68.65  68.71  78.39
         79.01  80.90  80.96  97.03
 105  1 -15.62 -15.03 -15.02 -14.51 -11.61 -11.01 -11.00 -10.21  -9.26  -8.79
         -8.78  -8.20  -7.08  -7.01  -7.00  -6.32  -3.30  -2.69  -2.43  -2.42
         -1.74  -1.73  -1.40  -1.17  -0.11  -0.10  -0.10   0.07   0.44   0.45
          0.70   1.24   1.72   2.15   2.47   2.73   2.74   4.22   4.23   5.36
          5.75   7.60   7.61   8.16   8.72   8.73   9.34   9.66   9.88   9.98
         10.00  10.67  11.07  11.69  11.70  12.01  12.70  12.83  12.84  12.86
         13.45  13.72  13.74  14.39  14.87  15.07  15.09  15.51  17.36  18.11
         18.13  19.16  19.73  19.89  19.90  20.37  21.45  21.46  21.70  22.26
         25.50  25.52  25.91  25.93  27.53  35.83  35.86  40.15  42.45  42.48
         48.43  51.86  51.90  53.24  57.61  59.39  60.41  68.65  68.71  78.39
         79.01  80.90  80.96  97.03
 106  1 -15.45 -14.93 -14.92 -14.58 -12.01 -11.63 -11.62 -11.00  -8.31  -7.91
         -7.90  -7.21  -6.96  -6.92  -6.91  -6.39  -3.33  -3.19  -2.87  -2.86
         -2.08  -2.07  -1.77  -1.72  -1.31  -0.94  -0.83  -0.82   1.43   1.44
          2.18   2.41   2.60   3.22   3.59   4.04   4.05   4.41   4.42   4.77
          5.22   7.02   7.03   7.15   7.15   7.80   8.11   8.62   8.91   8.92
          8.95   9.30   9.35  10.07  10.51  10.53  13.81  14.06  14.06  15.02
         15.04  15.10  15.45  15.61  15.76  15.97  16.38  16.40  17.56  18.31
         18.33  18.36  18.88  18.89  19.32  19.61  20.41  20.42  21.05  21.49
         26.74  26.85  26.90  28.24  28.52  32.07  32.09  34.11  38.56  39.43
         39.48  45.77  54.63  54.74  57.97  58.79  60.68  73.16  73.17  78.47
         83.98  84.08  84.70 102.83
 107  1 -15.15 -14.81 -14.80 -14.80 -12.10 -12.09 -12.09 -11.71  -7.16  -7.16
         -7.15  -6.76  -6.76  -6.75  -6.54  -6.53  -3.95  -3.47  -3.47  -3.46
         -2.01  -2.01  -2.00  -1.90  -1.89  -1.61  -1.61  -1.60   2.92   2.93
          2.94   3.37   4.14   4.15   4.28   4.28   4.29   5.26   5.44   5.45
          5.45   6.22   6.22   6.22   6.30   6.31   6.31   7.72   7.74   8.00
          8.01   8.01   8.69   8.70   8.70   8.81  15.84  15.90  15.92  15.92
         16.38  16.40  16.58  16.60  16.60  17.20  17.21  17.21  17.95  17.98
         17.98  18.93  18.93  18.93  19.35  19.36  19.37  19.90  19.92  21.05
         27.83  27.83  27.87  29.15  29.16  29.52  29.53  29.56  48.58  48.59
         48.76  53.96  61.93  61.94  62.24  67.19  67.28  67.30  76.43  76.75
         92.76  92.85  92.89  97.82
 108  1 -15.15 -14.81 -14.80 -14.80 -12.10 -12.09 -12.09 -11.71  -7.16  -7.16
         -7.15  -6.76  -6.76  -6.75  -6.54  -6.53  -3.95  -3.47  -3.47  -3.46
         -2.01  -2.01  -2.00  -1.90  -1.89  -1.61  -1.61  -1.60   2.92   2.93
          2.94   3.37   4.14   4.15   4.28   4.28   4.29   5.26   5.44   5.45
          5.45   6.22   6.22   6.22   6.30   6.31   6.31   7.72   7.74   8.00
          8.01   8.01   8.69   8.70   8.70   8.81  15.84  15.90  15.92  15.92
         16.38  16.40  16.58  16.60  16.60  17.20  17.21  17.21  17.95  17.98
         17.98  18.93  18.93  18.93  19.35  19.36  19.37  19.90  19.92  21.05
         27.83  27.83  27.87  29.15  29.16  29.52  29.53  29.56  48.58  48.59
         48.76  53.96  61.93  61.94  62.24  67.19  67.28  67.30  76.43  76.75
         92.76  92.85  92.89  97.82
siesta: Fermi energy =      -4.991777 eV

siesta: Program's energy decomposition (eV):
siesta: Ebs     =      -331.250244
siesta: Eions   =      1510.441798
siesta: Ena     =       471.509982
siesta: Ekin    =       318.881240
siesta: Enl     =       127.020062
siesta: DEna    =         6.711620
siesta: DUscf   =         1.514754
siesta: DUext   =         0.000000
siesta: Exc     =      -445.867369
siesta: eta*DQ  =         0.000000
siesta: Emadel  =         0.000000
siesta: Emeta   =         0.000000
siesta: Emolmec =         0.000000
siesta: Ekinion =         0.000000
siesta: Eharris =     -1030.674443
siesta: Etot    =     -1030.671509
siesta: FreeEng =     -1030.671509

siesta: Final energy (eV):
siesta:  Band Struct. =    -331.250244
siesta:       Kinetic =     318.881240
siesta:       Hartree =      60.072405
siesta:    Ext. field =       0.000000
siesta:   Exch.-corr. =    -445.867369
siesta:  Ion-electron =    -421.668124
siesta:       Ion-ion =    -542.089660
siesta:       Ekinion =       0.000000
siesta:         Total =   -1030.671509

siesta: Stress tensor (static) (eV/Ang**3):
siesta:     0.001411    0.000398    0.000398
siesta:     0.000398    0.001411    0.000398
siesta:     0.000398    0.000398    0.001411

siesta: Constrained stress tensor (static) (eV/Ang**3):
siesta:     0.001411    0.000398    0.000398
siesta:     0.000398    0.001411    0.000398
siesta:     0.000398    0.000398    0.001411

siesta: Cell volume =        168.664545 Ang**3

siesta: Pressure (static):
siesta:                Solid            Molecule  Units
siesta:          -0.00001537         -0.00002884  Ry/Bohr**3
siesta:          -0.00141139         -0.00264819  eV/Ang**3
siesta:          -2.26131331         -4.24290924  kBar
(Free)E+ p_basis*V_orbitals  =       -1021.733778
(Free)Eharris+ p_basis*V_orbitals  =       -1021.737937

* Maximum dynamic memory allocated : Node    0 =    84 MB

* Maximum memory occured during init_pulay_arrrays            

timer: CPU execution times:
timer:  Routine       Calls   Time/call    Tot.time        %
timer:  siesta            1     609.362     609.362   100.00
timer:  Setup             1       0.128       0.128     0.02
timer:  bands             3       0.511       1.532     0.25
timer:  writewave         3       0.007       0.020     0.00
timer:  KSV_init          1       0.000       0.000     0.00
timer:  IterMD            8      75.948     607.582    99.71
timer:  hsparse           8       0.156       1.248     0.20
timer:  overlap           8       0.131       1.048     0.17
timer:  IterSCF          36      13.644     491.179    80.61
timer:  kinefsm          16       0.126       2.016     0.33
timer:  nlefsm           16       3.508      56.135     9.21
timer:  DHSCF            44       7.821     344.126    56.47
timer:  DHSCF1            8       0.049       0.392     0.06
timer:  DHSCF2            8       2.243      17.941     2.94
timer:  REORD           280       0.000       0.028     0.00
timer:  POISON           52       0.005       0.252     0.04
timer:  DHSCF3           44       6.762     297.511    48.82
timer:  rhoofd           44       3.060     134.636    22.09
timer:  cellXC           44       0.122       5.376     0.88
timer:  vmat             44       3.573     157.218    25.80
timer:  MolMec           16       0.000       0.000     0.00
timer:  diagon           36       5.568     200.460    32.90
timer:  c-eigval       3989       0.015      61.388    10.07
timer:  c-buildHS      3989       0.011      43.031     7.06
timer:  cdiag          7878       0.007      56.104     9.21
timer:  cdiag1         7878       0.001       4.193     0.69
timer:  cdiag2         7878       0.002      14.649     2.40
timer:  cdiag3         7878       0.005      36.058     5.92
timer:  cdiag4         7878       0.000       1.004     0.16
timer:  c-eigvec       3889       0.021      79.853    13.10
timer:  c-buildD       3888       0.016      60.387     9.91
timer:  DHSCF4            8       3.532      28.258     4.64
timer:  dfscf             8       3.297      26.378     4.33
timer:  overfsm           8       0.117       0.932     0.15
timer:  optical           1       0.000       0.000     0.00
  

elaps: ELAPSED times:
elaps:  Routine       Calls   Time/call    Tot.time        %
elaps:  siesta            1     612.561     612.561   100.00
elaps:  Setup             1       0.130       0.130     0.02
elaps:  bands             3       0.513       1.538     0.25
elaps:  writewave         3       0.006       0.019     0.00
elaps:  KSV_init          1       0.000       0.000     0.00
elaps:  IterMD            8      76.346     610.772    99.71
elaps:  hsparse           8       0.156       1.250     0.20
elaps:  overlap           8       0.131       1.049     0.17
elaps:  IterSCF          36      13.716     493.765    80.61
elaps:  kinefsm          16       0.127       2.028     0.33
elaps:  nlefsm           16       3.529      56.468     9.22
elaps:  DHSCF            44       7.857     345.704    56.44
elaps:  DHSCF1            8       0.050       0.400     0.07
elaps:  DHSCF2            8       2.253      18.025     2.94
elaps:  REORD           280       0.000       0.026     0.00
elaps:  POISON           52       0.005       0.255     0.04
elaps:  DHSCF3           44       6.793     298.883    48.79
elaps:  rhoofd           44       3.072     135.179    22.07
elaps:  cellXC           44       0.123       5.402     0.88
elaps:  vmat             44       3.592     158.026    25.80
elaps:  MolMec           16       0.000       0.001     0.00
elaps:  diagon           36       5.602     201.688    32.93
elaps:  c-eigval       3989       0.015      61.704    10.07
elaps:  c-buildHS      3989       0.011      43.241     7.06
elaps:  cdiag          7878       0.007      56.489     9.22
elaps:  cdiag1         7878       0.001       4.243     0.69
elaps:  cdiag2         7878       0.002      14.792     2.41
elaps:  cdiag3         7878       0.005      36.188     5.91
elaps:  cdiag4         7878       0.000       1.051     0.17
elaps:  c-eigvec       3889       0.021      80.464    13.14
elaps:  c-buildD       3888       0.016      60.758     9.92
elaps:  DHSCF4            8       3.548      28.385     4.63
elaps:  dfscf             8       3.313      26.502     4.33
elaps:  overfsm           8       0.118       0.942     0.15
elaps:  optical           1       0.000       0.000     0.00
  
>> End of run:   9-MAY-2013  20:47:05

=====================================================================================
=   BAD TERMINATION OF ONE OF YOUR APPLICATION PROCESSES
=   EXIT CODE: 134
=   CLEANING UP REMAINING PROCESSES
=   YOU CAN IGNORE THE BELOW CLEANUP MESSAGES
=====================================================================================
APPLICATION TERMINATED WITH THE EXIT STRING: Aborted (signal 6)
