Siesta Version:                                        siesta-3.2
Architecture  : i686-apple-darwin10.8.0--unknown
Compiler flags: g95 -g -O2
SERIAL version

* Running in serial mode
>> Start of run:  13-MAY-2013  10:20:37

                           ***********************       
                           *  WELCOME TO SIESTA  *       
                           ***********************       

reinit: Reading from standard input
************************** Dump of input data file ****************************
# FDF for silicon
SystemName             silicon          # Descriptive name of the system
SystemLabel            si          # Short name for naming files
NumberOfAtoms 8
NumberOfSpecies 1
%block ChemicalSpeciesLabel
1 14 Si
%endblock ChemicalSpeciesLabel
LatticeConstant  5.43 Ang
##Basis set Definition##
PAO.BasisType          split        # Type of PAO basis set
PAO.EnergyShift        50 meV
PAO.BasisSize          DZP          # (DZP) Double-z + polarization
#%block LatticeVectors
#0.500 0.500 0.000
#0.500 0.000 0.500
#0.000 0.500 0.500
#%endblock LatticeVectors
AtomicCoordinatesFormat NotScaledCartesianAng
%block AtomicCoordinatesAndAtomicSpecies
	0.00000000	0.00000000	0.00000000  1 Si  1
	1.36000000	1.36000000	1.36000000  1 Si  2
	2.72000000	2.72000000	0.00000000  1 Si  3
	4.08000000	4.08000000	1.36000000  1 Si  4
	2.72000000	0.00000000	2.72000000  1 Si  5
	4.08000000	1.36000000	4.08000000  1 Si  6
	0.00000000	2.72000000	2.72000000  1 Si  7
	1.36000000	4.08000000	4.08000000  1 Si  8
%endblock AtomicCoordinatesAndAtomicSpecies
MeshCutoff 180.0 Ry # 100, 120, 180, 260
kgrid_cutoff 30.0 Bohr # 30, 35, 40, 45
DM.Mixingweight  0.3
DM.NumberPulay    3
DM.Tolerance      1.d-3
DM.UseSaveDM      true
ElectronicTemperature 25 meV
SolutionMethod    diagon
XC.functional      GGA	    # Generalized Gradient Approximation
XC.authors        PBE          # Perdew-Burke-Ernzerhof
SpinPolarized     false
MD.TypeOfRun           CG           # Type of dynamics:
MD.VariableCell        true
MD.NumCGsteps          100          # Number of CG steps for coordinate optimization
MD.MaxCGDispl          0.2 Bohr     # Maximum atomic displacement
                                    #   in one CG step (Bohr)
MD.MaxForceTol         0.04 eV/Ang  # Tolerance in the maximum
                                    #   atomic force (Ry/Bohr)
				
##Output Specification##
WriteMDhistory         true         # Trajectory information
WriteCoorStep          true
WriteCoorXmol          true
WriteMDXmol            true
WriteEigenvalues true
WriteKbands      true
WriteBands       true
WriteWaveFunctions true
WriteMullikenPoP   1
%block BandLines
1	1.000	1.000 1.000 L
25	0.000	0.000	0.000 \Gamma
30	2.000	0.000	0.000 X
10	2.000	0.500	0.500 U
35	0.000	0.000	0.000 \Gamma
%endblock BandLines
%block WaveFuncKPoints
0.0 0.0 0.0 from 1 to 50 # > 16 = 4/2*8 (Valenzelektronen/2, Atomzahl ...)
%endblock WaveFuncKpoints
************************** End of input data file *****************************

reinit: -----------------------------------------------------------------------
reinit: System Name: silicon
reinit: -----------------------------------------------------------------------
reinit: System Label: si                                                          
reinit: -----------------------------------------------------------------------

initatom: Reading input for the pseudopotentials and atomic orbitals ----------
 Species number:  1  Label: Si Atomic number: 14
Ground state valence configuration:   3s02  3p02
Reading pseudopotential information in formatted form from Si.psf

Valence configuration for pseudopotential generation:
3s( 2.00) rc: 1.75
3p( 2.00) rc: 1.94
3d( 0.00) rc: 2.09
4f( 0.00) rc: 2.09
For Si, standard SIESTA heuristics set lmxkb to 3
 (one more than the basis l, including polarization orbitals).
Use PS.lmax or PS.KBprojectors blocks to override.

<basis_specs>
===============================================================================
Si                   Z=  14    Mass=  28.090        Charge= 0.17977+309
Lmxo=1 Lmxkb= 3    BasisType=split      Semic=F
L=0  Nsemic=0  Cnfigmx=3
          n=1  nzeta=2  polorb=0
            splnorm:   0.15000    
               vcte:    0.0000    
               rinn:    0.0000    
                rcs:    0.0000      0.0000    
            lambdas:    1.0000      1.0000    
L=1  Nsemic=0  Cnfigmx=3
          n=1  nzeta=2  polorb=1
            splnorm:   0.15000    
               vcte:    0.0000    
               rinn:    0.0000    
                rcs:    0.0000      0.0000    
            lambdas:    1.0000      1.0000    
-------------------------------------------------------------------------------
L=0  Nkbl=1  erefs: 0.17977+309
L=1  Nkbl=1  erefs: 0.17977+309
L=2  Nkbl=1  erefs: 0.17977+309
L=3  Nkbl=1  erefs: 0.17977+309
===============================================================================
</basis_specs>

atom: Called for Si                    (Z =  14)

read_vps: Pseudopotential generation method:
read_vps: ATM3      Troullier-Martins                       
Total valence charge:    4.00000

read_vps: Pseudopotential includes a core correction:
read_vps: Pseudo-core for xc-correction

xc_check: Exchange-correlation functional:
xc_check: GGA Perdew, Burke & Ernzerhof 1996
V l=0 = -2*Zval/r beyond r=  2.0104
V l=1 = -2*Zval/r beyond r=  2.0873
V l=2 = -2*Zval/r beyond r=  2.1670
V l=3 = -2*Zval/r beyond r=  2.1670
All V_l potentials equal beyond r=  2.0613
This should be close to max(r_c) in ps generation
All pots = -2*Zval/r beyond r=  2.1670

VLOCAL1: 99.0% of the norm of Vloc inside     10.216 Ry
VLOCAL1: 99.9% of the norm of Vloc inside     23.282 Ry
atom: Maximum radius for 4*pi*r*r*local-pseudopot. charge    2.45560
atom: Maximum radius for r*vlocal+2*Zval:    2.14012
GHOST: No ghost state for L =  0
GHOST: No ghost state for L =  1
GHOST: No ghost state for L =  2
GHOST: No ghost state for L =  3

KBgen: Kleinman-Bylander projectors: 
   l= 0   rc=  2.306811   el= -0.791441   Ekb=  5.289775   kbcos=  0.291595
   l= 1   rc=  2.394965   el= -0.300632   Ekb=  1.944256   kbcos=  0.287657
   l= 2   rc=  2.549439   el=  0.001958   Ekb= -1.788485   kbcos= -0.056492
   l= 3   rc=  2.782581   el=  0.003046   Ekb= -0.472620   kbcos= -0.006203

KBgen: Total number of  Kleinman-Bylander projectors:   16
atom: -------------------------------------------------------------------------

atom: SANKEY-TYPE ORBITALS:
atom: Selected multiple-zeta basis: split     

SPLIT: Orbitals with angular momentum L= 0

SPLIT: Basis orbitals for state 3s

SPLIT: PAO cut-off radius determined from an
SPLIT: energy shift=  0.003675 Ry

   izeta = 1
                 lambda =    1.000000
                     rc =    6.116033
                 energy =   -0.788343
                kinetic =    0.528041
    potential(screened) =   -1.316383
       potential(ionic) =   -3.704743

   izeta = 2
                 rmatch =    4.530823
              splitnorm =    0.150000
                 energy =   -0.692892
                kinetic =    0.848665
    potential(screened) =   -1.541557
       potential(ionic) =   -4.044985

SPLIT: Orbitals with angular momentum L= 1

SPLIT: Basis orbitals for state 3p

SPLIT: PAO cut-off radius determined from an
SPLIT: energy shift=  0.003675 Ry

   izeta = 1
                 lambda =    1.000000
                     rc =    7.853192
                 energy =   -0.297152
                kinetic =    0.797948
    potential(screened) =   -1.095101
       potential(ionic) =   -3.275753

   izeta = 2
                 rmatch =    5.330310
              splitnorm =    0.150000
                 energy =   -0.228170
                kinetic =    1.148579
    potential(screened) =   -1.376749
       potential(ionic) =   -3.739005

POLgen: Perturbative polarization orbital with L=  2

POLgen: Polarization orbital for state 3p

   izeta = 1
                     rc =    7.853192
                 energy =    0.340222
                kinetic =    1.096718
    potential(screened) =   -0.756496
       potential(ionic) =   -2.716423
atom: Total number of Sankey-type orbitals: 13

atm_pop: Valence configuration (for local Pseudopot. screening):
 3s( 2.00)                                                            
 3p( 2.00)                                                            
Vna: chval, zval:    4.00000   4.00000

Vna:  Cut-off radius for the neutral-atom potential:   7.853192
comcore: Pseudo-core radius Rcore=  2.999314

atom: _________________________________________________________________________

prinput: Basis input ----------------------------------------------------------

PAO.BasisType split     

%block ChemicalSpeciesLabel
    1   14 Si                      # Species index, atomic number, species label
%endblock ChemicalSpeciesLabel

%block PAO.Basis                 # Define Basis set
Si                    2                    # Species label, number of l-shells
 n=3   0   2                         # n, l, Nzeta 
   6.116      4.531   
   1.000      1.000   
 n=3   1   2 P   1                   # n, l, Nzeta, Polarization, NzetaPol
   7.853      5.330   
   1.000      1.000   
%endblock PAO.Basis

prinput: ----------------------------------------------------------------------

coor:   Atomic-coordinates input format  =     Cartesian coordinates
coor:                                          (in Angstroms)

siesta: Atomic coordinates (Bohr) and species
siesta:      0.00000   0.00000   0.00000  1        1
siesta:      2.57003   2.57003   2.57003  1        2
siesta:      5.14006   5.14006   0.00000  1        3
siesta:      7.71009   7.71009   2.57003  1        4
siesta:      5.14006   0.00000   5.14006  1        5
siesta:      7.71009   2.57003   7.71009  1        6
siesta:      0.00000   5.14006   5.14006  1        7
siesta:      2.57003   7.71009   7.71009  1        8

siesta: System type = bulk      

initatomlists: Number of atoms, orbitals, and projectors:      8   104   128

siesta: ******************** Simulation parameters ****************************
siesta:
siesta: The following are some of the parameters of the simulation.
siesta: A complete list of the parameters used, including default values,
siesta: can be found in file out.fdf
siesta:
redata: Non-Collinear-spin run           =     F
redata: SpinPolarized (Up/Down) run      =     F
redata: Number of spin components        =     1
redata: Long output                      =     F
redata: Number of Atomic Species         =        1
redata: Charge density info will appear in .RHO file
redata: Write Mulliken Pop.              =     Atomic and Orbital charges
redata: Mesh Cutoff                      =   180.0000  Ry
redata: Net charge of the system         =     0.0000 |e|
redata: Max. number of SCF Iter          =       50
redata: Performing Pulay mixing using    =     3 iterations
redata: Mix DM in first SCF step ?       =     F
redata: Write Pulay info on disk?        =     F
redata: Discard 1st Pulay DM after  kick =     F
redata: New DM Mixing Weight             =     0.3000
redata: New DM Occupancy tolerance       = 0.000000000001
redata: No kicks to SCF
redata: DM Mixing Weight for Kicks       =     0.5000
redata: DM Tolerance for SCF             =     0.001000
redata: Require Energy convergence for SCF =     F
redata: DM Energy tolerance for SCF      =     0.000100 eV
redata: Require Harris convergence for SCF =     F
redata: DM Harris energy tolerance for SCF =     0.000100 eV
redata: Using Saved Data (generic)   =     F
redata: Use continuation files for DM    =     T
redata: Neglect nonoverlap interactions  =     F
redata: Method of Calculation            =     Diagonalization
redata: Divide and Conquer               =     T
redata: Electronic Temperature           =     0.0018  Ry
redata: Fix the spin of the system       =     F
redata: Dynamics option                  =     CG coord. optimization
redata: Variable cell                    =     T
redata: Use continuation files for CG    =     F
redata: Max atomic displ per move        =     0.2000  Bohr
redata: Maximum number of CG moves       =      100
redata: Force tolerance                  =     0.0016  Ry/Bohr
redata: Stress tolerance                 =     1.0000  GPa
redata: ***********************************************************************
Total number of electrons:    32.000000
Total ionic charge:    32.000000
 Kpoints in:  108 . Kpoints trimmed:  108

siesta: k-grid: Number of k-points =   108
siesta: k-grid: Cutoff (effective) =    16.290 Ang
siesta: k-grid: Supercell and displacements
siesta: k-grid:    0   6   0      0.500
siesta: k-grid:    0   0   6      0.500
siesta: k-grid:    6   0   0      0.500
Naive supercell factors:     5    5    5

superc: Internal auxiliary supercell:     5 x     5 x     5  =     125
superc: Number of atoms, orbitals, and projectors:   1000  13000  16000

* Maximum dynamic memory allocated =     1 MB

siesta:                 ==============================
                            Begin CG move =      0
                        ==============================

outcoor: Atomic coordinates (Ang):                          
    0.00000000    0.00000000    0.00000000   1       1  Si
    1.36000000    1.36000000    1.36000000   1       2  Si
    2.72000000    2.72000000    0.00000000   1       3  Si
    4.08000000    4.08000000    1.36000000   1       4  Si
    2.72000000    0.00000000    2.72000000   1       5  Si
    4.08000000    1.36000000    4.08000000   1       6  Si
    0.00000000    2.72000000    2.72000000   1       7  Si
    1.36000000    4.08000000    4.08000000   1       8  Si

superc: Internal auxiliary supercell:     5 x     5 x     5  =     125
superc: Number of atoms, orbitals, and projectors:   1000  13000  16000

outcell: Unit cell vectors (Ang):
        5.430000    0.000000    0.000000
        0.000000    5.430000    0.000000
        0.000000    0.000000    5.430000

outcell: Cell vector modules (Ang)   :    5.430000    5.430000    5.430000
outcell: Cell angles (23,13,12) (deg):     90.0000     90.0000     90.0000
outcell: Cell volume (Ang**3)        :    160.1030
New_DM. Step:     1
Initializing Density Matrix...

InitMesh: MESH =    48 x    48 x    48 =      110592
InitMesh: Mesh cutoff (required, used) =   180.000   215.966 Ry

* Maximum dynamic memory allocated =   136 MB

stepf: Fermi-Dirac step function

siesta: Program's energy decomposition (eV):
siesta: Ebs     =      -348.002867
siesta: Eions   =      1510.441798
siesta: Ena     =       468.364270
siesta: Ekin    =       288.667622
siesta: Enl     =       154.333152
siesta: DEna    =         0.000001
siesta: DUscf   =         0.000000
siesta: DUext   =         0.000000
siesta: Exc     =      -445.548573
siesta: eta*DQ  =         0.000000
siesta: Emadel  =         0.000000
siesta: Emeta   =         0.000000
siesta: Emolmec =         0.000000
siesta: Ekinion =         0.000000
siesta: Eharris =     -1030.809491
siesta: Etot    =     -1044.625326
siesta: FreeEng =     -1044.625326

siesta: iscf   Eharris(eV)      E_KS(eV)   FreeEng(eV)   dDmax  Ef(eV)
siesta:    1    -1030.8095    -1044.6253    -1044.6253  1.7333 -5.3864
timer: Routine,Calls,Time,% = IterSCF        1      35.453  97.81
elaps: Routine,Calls,Wall,% = IterSCF        1      35.460  97.75
siesta:    2    -1030.5602    -1030.5007    -1030.5007  0.0870 -5.0442
siesta:    3    -1030.5529    -1031.0219    -1031.0219  0.0420 -5.0747
siesta:    4    -1030.5506    -1030.5621    -1030.5621  0.0047 -5.0933
siesta:    5    -1030.5506    -1030.5617    -1030.5617  0.0034 -5.0927
siesta:    6    -1030.5507    -1030.5463    -1030.5463  0.0006 -5.0924

siesta: E_KS(eV) =            -1030.5476

siesta: E_KS - E_eggbox =     -1030.5476

siesta: Atomic forces (eV/Ang):
----------------------------------------
   Tot    0.001143    0.001143    0.001138
----------------------------------------
   Max    0.082870
   Res    0.058679    sqrt( Sum f_i^2 / 3N )
----------------------------------------
   Max    0.082870    constrained

Stress-tensor-Voigt (kbar):      -45.46      -45.46      -45.46        1.19        1.19        1.19
(Free)E + p*V (eV/cell)    -1026.0045
Target enthalpy (eV/cell)    -1030.5476

siesta: Stress tensor (static) (eV/Ang**3):
        -0.028376    0.000742    0.000742
         0.000742   -0.028376    0.000742
         0.000742    0.000742   -0.028376

siesta: Pressure (static):         45.46346055  kBar

siesta: Stress tensor (total) (eV/Ang**3):
        -0.028376    0.000742    0.000742
         0.000742   -0.028376    0.000742
         0.000742    0.000742   -0.028376

siesta: Pressure (total):         45.46346055  kBar

mulliken: Mulliken Atomic and Orbital Populations:

Species: Si                  
Atom  Qatom  Qorb
               3s      3s      3py     3pz     3px     3py     3pz     3px     
               3Pdxy   3Pdyz   3Pdz2   3Pdxz   3Pdx2-y2
   1  4.001   0.595   0.594   0.204   0.204   0.204   0.556   0.556   0.556
              0.126   0.126   0.076   0.126   0.076
   2  3.999   0.607   0.588   0.208   0.208   0.208   0.552   0.552   0.552
              0.125   0.125   0.075   0.125   0.075
   3  4.000   0.604   0.590   0.205   0.209   0.205   0.554   0.552   0.554
              0.126   0.125   0.075   0.125   0.076
   4  4.000   0.599   0.592   0.206   0.203   0.206   0.554   0.556   0.554
              0.126   0.126   0.076   0.126   0.076
   5  4.000   0.604   0.590   0.209   0.205   0.205   0.552   0.554   0.554
              0.125   0.125   0.076   0.126   0.075
   6  4.000   0.599   0.592   0.203   0.206   0.206   0.556   0.554   0.554
              0.126   0.126   0.076   0.126   0.076
   7  4.000   0.604   0.590   0.205   0.205   0.209   0.554   0.554   0.552
              0.125   0.126   0.076   0.125   0.075
   8  4.000   0.599   0.592   0.206   0.206   0.203   0.554   0.554   0.556
              0.126   0.126   0.076   0.126   0.076

mulliken: Qtot =       32.000

cgvc: No target stress found, assuming hydrostatic MD.TargetPressure.

cgvc: Target stress (kBar)
cgvc:        -0.000       0.000       0.000
cgvc:         0.000      -0.000       0.000
cgvc:         0.000       0.000      -0.000

* Maximum dynamic memory allocated =   137 MB

siesta:                 ==============================
                            Begin CG move =      1
                        ==============================

outcoor: Atomic coordinates (Ang):                          
    0.00550878    0.00550859    0.00550790   1       1  Si
    1.37616949    1.37616933    1.37616901   1       2  Si
    2.75125638    2.75125635    0.00376215   1       3  Si
    4.12177906    4.12177924    1.37444060   1       4  Si
    2.75125666    0.00376302    2.75125631   1       5  Si
    4.12177917    1.37444059    4.12178002   1       6  Si
    0.00376303    2.75125664    2.75125634   1       7  Si
    1.37444072    4.12177934    4.12178009   1       8  Si
 Kpoints in:  108 . Kpoints trimmed:  108

siesta: k-grid: Number of k-points =   108
siesta: k-grid: Cutoff (effective) =    16.486 Ang
siesta: k-grid: Supercell and displacements
siesta: k-grid:    6   0   0      0.500
siesta: k-grid:    0   6   0      0.500
siesta: k-grid:    0   0   6      0.500
Naive supercell factors:     5    5    5

superc: Internal auxiliary supercell:     5 x     5 x     5  =     125
superc: Number of atoms, orbitals, and projectors:   1000  13000  16000

outcell: Unit cell vectors (Ang):
        5.495257   -0.001706   -0.001706
       -0.001706    5.495257   -0.001706
       -0.001706   -0.001706    5.495257

outcell: Cell vector modules (Ang)   :    5.495258    5.495258    5.495258
outcell: Cell angles (23,13,12) (deg):     90.0356     90.0356     90.0356
outcell: Cell volume (Ang**3)        :    165.9449
New_DM. Step:     2
Re-using DM from previous geometry...
Re-using DM without extrapolation (not allowed)
Density Matrix sparsity pattern changed.

InitMesh: MESH =    48 x    48 x    48 =      110592
InitMesh: Mesh cutoff (required, used) =   180.000   210.867 Ry

siesta: iscf   Eharris(eV)      E_KS(eV)   FreeEng(eV)   dDmax  Ef(eV)
siesta:    1    -1030.6532    -1029.6292    -1029.6292  0.0297 -5.0091
siesta:    2    -1030.6572    -1030.6490    -1030.6490  0.0108 -5.0239
siesta:    3    -1030.6518    -1030.6236    -1030.6236  0.0019 -5.0221
siesta:    4    -1030.6518    -1030.6456    -1030.6456  0.0009 -5.0219

siesta: E_KS(eV) =            -1030.6525

siesta: Atomic forces (eV/Ang):
----------------------------------------
   Tot   -0.001211   -0.001208   -0.001204
----------------------------------------
   Max    0.045650
   Res    0.037267    sqrt( Sum f_i^2 / 3N )
----------------------------------------
   Max    0.045650    constrained

Stress-tensor-Voigt (kbar):      -11.51      -11.51      -11.51       -1.54       -1.54       -1.54
(Free)E + p*V (eV/cell)    -1029.4608
Target enthalpy (eV/cell)    -1030.6525

siesta: Stress tensor (static) (eV/Ang**3):
        -0.007181   -0.000962   -0.000963
        -0.000962   -0.007181   -0.000963
        -0.000963   -0.000963   -0.007181

siesta: Pressure (static):         11.50563421  kBar

siesta: Stress tensor (total) (eV/Ang**3):
        -0.007181   -0.000962   -0.000963
        -0.000962   -0.007181   -0.000963
        -0.000963   -0.000963   -0.007181

siesta: Pressure (total):         11.50563421  kBar

mulliken: Mulliken Atomic and Orbital Populations:

Species: Si                  
Atom  Qatom  Qorb
               3s      3s      3py     3pz     3px     3py     3pz     3px     
               3Pdxy   3Pdyz   3Pdz2   3Pdxz   3Pdx2-y2
   1  4.000   0.635   0.574   0.235   0.235   0.235   0.528   0.528   0.528
              0.120   0.120   0.071   0.120   0.071
   2  4.000   0.632   0.575   0.234   0.234   0.234   0.529   0.529   0.529
              0.120   0.120   0.071   0.120   0.071
   3  4.000   0.633   0.574   0.234   0.234   0.234   0.529   0.529   0.529
              0.120   0.120   0.071   0.120   0.071
   4  4.000   0.633   0.574   0.234   0.235   0.234   0.528   0.528   0.528
              0.120   0.120   0.071   0.120   0.071
   5  4.000   0.633   0.574   0.234   0.234   0.234   0.529   0.529   0.529
              0.120   0.120   0.071   0.120   0.071
   6  4.000   0.633   0.574   0.235   0.234   0.234   0.528   0.528   0.528
              0.120   0.120   0.071   0.120   0.071
   7  4.000   0.633   0.574   0.234   0.234   0.234   0.529   0.529   0.529
              0.120   0.120   0.071   0.120   0.071
   8  4.000   0.633   0.574   0.234   0.234   0.235   0.528   0.528   0.528
              0.120   0.120   0.071   0.120   0.071

mulliken: Qtot =       32.000

* Maximum dynamic memory allocated =   142 MB

siesta:                 ==============================
                            Begin CG move =      2
                        ==============================

outcoor: Atomic coordinates (Ang):                          
    0.01458089    0.01458039    0.01457857   1       1  Si
    1.40207252    1.40207209    1.40207124   1       2  Si
    2.80123180    2.80123171    0.01005337   1       3  Si
    4.18835787    4.18835835    1.39759233   1       4  Si
    2.80123255    0.01005565    2.80123161   1       5  Si
    4.18835818    1.39759230    4.18836043   1       6  Si
    0.01005568    2.80123249    2.80123169   1       7  Si
    1.39759264    4.18835862    4.18836062   1       8  Si
 Kpoints in:  108 . Kpoints trimmed:  108

siesta: k-grid: Number of k-points =   108
siesta: k-grid: Cutoff (effective) =    16.799 Ang
siesta: k-grid: Supercell and displacements
siesta: k-grid:    6   0   0      0.500
siesta: k-grid:    0   6   0      0.500
siesta: k-grid:    0   0   6      0.500
Naive supercell factors:     5    5    5

superc: Internal auxiliary supercell:     5 x     5 x     5  =     125
superc: Number of atoms, orbitals, and projectors:   1000  13000  16000

outcell: Unit cell vectors (Ang):
        5.599669   -0.004436   -0.004436
       -0.004436    5.599669   -0.004436
       -0.004436   -0.004436    5.599669

outcell: Cell vector modules (Ang)   :    5.599673    5.599673    5.599673
outcell: Cell angles (23,13,12) (deg):     90.0908     90.0907     90.0907
outcell: Cell volume (Ang**3)        :    175.5845
New_DM. Step:     3
Re-using DM from previous geometry...
Re-using DM without extrapolation (not allowed)

InitMesh: MESH =    48 x    48 x    48 =      110592
InitMesh: Mesh cutoff (required, used) =   180.000   203.077 Ry

siesta: iscf   Eharris(eV)      E_KS(eV)   FreeEng(eV)   dDmax  Ef(eV)
siesta:    1    -1030.5652    -1029.0986    -1029.0986  0.0410 -4.8878
siesta:    2    -1030.5780    -1030.5513    -1030.5513  0.0182 -4.9162
siesta:    3    -1030.5602    -1030.5016    -1030.5016  0.0031 -4.9093
siesta:    4    -1030.5600    -1030.5489    -1030.5489  0.0015 -4.9090
siesta:    5    -1030.5601    -1030.5589    -1030.5589  0.0009 -4.9087

siesta: E_KS(eV) =            -1030.5603

siesta: Atomic forces (eV/Ang):
----------------------------------------
   Tot   -0.000432   -0.000433   -0.000436
----------------------------------------
   Max    0.224336
   Res    0.163526    sqrt( Sum f_i^2 / 3N )
----------------------------------------
   Max    0.224336    constrained

Stress-tensor-Voigt (kbar):       33.40       33.40       33.40       -4.41       -4.41       -4.41
(Free)E + p*V (eV/cell)    -1034.2210
Target enthalpy (eV/cell)    -1030.5603

siesta: Stress tensor (static) (eV/Ang**3):
         0.020849   -0.002751   -0.002751
        -0.002751    0.020849   -0.002751
        -0.002751   -0.002751    0.020849

siesta: Pressure (static):        -33.40403569  kBar

siesta: Stress tensor (total) (eV/Ang**3):
         0.020849   -0.002751   -0.002751
        -0.002751    0.020849   -0.002751
        -0.002751   -0.002751    0.020849

siesta: Pressure (total):        -33.40403569  kBar

mulliken: Mulliken Atomic and Orbital Populations:

Species: Si                  
Atom  Qatom  Qorb
               3s      3s      3py     3pz     3px     3py     3pz     3px     
               3Pdxy   3Pdyz   3Pdz2   3Pdxz   3Pdx2-y2
   1  4.000   0.688   0.548   0.283   0.283   0.283   0.485   0.485   0.485
              0.111   0.111   0.064   0.111   0.064
   2  4.000   0.662   0.561   0.272   0.272   0.272   0.496   0.496   0.496
              0.114   0.114   0.066   0.114   0.066
   3  4.000   0.671   0.557   0.278   0.271   0.278   0.491   0.495   0.491
              0.112   0.113   0.066   0.113   0.065
   4  4.000   0.679   0.553   0.278   0.283   0.278   0.489   0.486   0.489
              0.112   0.112   0.064   0.112   0.065
   5  4.000   0.671   0.557   0.271   0.278   0.278   0.495   0.491   0.491
              0.113   0.113   0.065   0.112   0.066
   6  4.000   0.679   0.553   0.283   0.278   0.278   0.486   0.489   0.489
              0.112   0.112   0.065   0.112   0.064
   7  4.000   0.671   0.557   0.278   0.278   0.271   0.491   0.491   0.495
              0.113   0.112   0.065   0.113   0.066
   8  4.000   0.679   0.553   0.278   0.278   0.283   0.489   0.489   0.486
              0.112   0.112   0.065   0.112   0.064

mulliken: Qtot =       32.000

* Maximum dynamic memory allocated =   142 MB

siesta:                 ==============================
                            Begin CG move =      3
                        ==============================

outcoor: Atomic coordinates (Ang):                          
    0.00742333    0.00742307    0.00742215   1       1  Si
    1.38170895    1.38170873    1.38170830   1       2  Si
    2.76195377    2.76195373    0.00508022   1       3  Si
    4.13605337    4.13605361    1.37938979   1       4  Si
    2.76195416    0.00508139    2.76195368   1       5  Si
    4.13605353    1.37938978    4.13605467   1       6  Si
    0.00508141    2.76195412    2.76195372   1       7  Si
    1.37938995    4.13605375    4.13605477   1       8  Si
 Kpoints in:  108 . Kpoints trimmed:  108

siesta: k-grid: Number of k-points =   108
siesta: k-grid: Cutoff (effective) =    16.553 Ang
siesta: k-grid: Supercell and displacements
siesta: k-grid:    6   0   0      0.500
siesta: k-grid:    0   6   0      0.500
siesta: k-grid:    0   0   6      0.500
Naive supercell factors:     5    5    5

superc: Internal auxiliary supercell:     5 x     5 x     5  =     125
superc: Number of atoms, orbitals, and projectors:   1000  13000  16000

outcell: Unit cell vectors (Ang):
        5.517599   -0.002290   -0.002290
       -0.002290    5.517599   -0.002290
       -0.002290   -0.002290    5.517600

outcell: Cell vector modules (Ang)   :    5.517600    5.517600    5.517601
outcell: Cell angles (23,13,12) (deg):     90.0476     90.0476     90.0476
outcell: Cell volume (Ang**3)        :    167.9772
New_DM. Step:     4
Re-using DM from previous geometry...
Re-using DM without extrapolation (not allowed)

InitMesh: MESH =    48 x    48 x    48 =      110592
InitMesh: Mesh cutoff (required, used) =   180.000   209.163 Ry

siesta: iscf   Eharris(eV)      E_KS(eV)   FreeEng(eV)   dDmax  Ef(eV)
siesta:    1    -1030.6600    -1031.7262    -1031.7262  0.0315 -5.0024
siesta:    2    -1030.6664    -1030.6528    -1030.6528  0.0136 -4.9860
siesta:    3    -1030.6573    -1030.6955    -1030.6955  0.0021 -4.9952
siesta:    4    -1030.6573    -1030.6628    -1030.6628  0.0011 -4.9953
siesta:    5    -1030.6573    -1030.6561    -1030.6561  0.0007 -4.9870

siesta: E_KS(eV) =            -1030.6562

siesta: Atomic forces (eV/Ang):
----------------------------------------
   Tot   -0.001516   -0.001517   -0.001507
----------------------------------------
   Max    0.089459
   Res    0.067751    sqrt( Sum f_i^2 / 3N )
----------------------------------------
   Max    0.089459    constrained

Stress-tensor-Voigt (kbar):       -0.21       -0.21       -0.21       -2.26       -2.26       -2.26
(Free)E + p*V (eV/cell)    -1030.6346
Target enthalpy (eV/cell)    -1030.6562

siesta: Stress tensor (static) (eV/Ang**3):
        -0.000129   -0.001409   -0.001409
        -0.001409   -0.000129   -0.001409
        -0.001409   -0.001409   -0.000129

siesta: Pressure (static):          0.20595498  kBar

siesta: Stress tensor (total) (eV/Ang**3):
        -0.000129   -0.001409   -0.001409
        -0.001409   -0.000129   -0.001409
        -0.001409   -0.001409   -0.000129

siesta: Pressure (total):          0.20595498  kBar

mulliken: Mulliken Atomic and Orbital Populations:

Species: Si                  
Atom  Qatom  Qorb
               3s      3s      3py     3pz     3px     3py     3pz     3px     
               3Pdxy   3Pdyz   3Pdz2   3Pdxz   3Pdx2-y2
   1  3.999   0.645   0.569   0.245   0.245   0.245   0.519   0.519   0.519
              0.118   0.118   0.070   0.118   0.070
   2  4.000   0.637   0.573   0.242   0.242   0.242   0.523   0.523   0.523
              0.119   0.119   0.070   0.119   0.070
   3  4.000   0.639   0.572   0.244   0.242   0.244   0.521   0.522   0.521
              0.119   0.119   0.070   0.119   0.070
   4  4.000   0.642   0.570   0.243   0.245   0.243   0.521   0.520   0.521
              0.119   0.118   0.070   0.118   0.070
   5  4.000   0.639   0.572   0.242   0.244   0.244   0.522   0.521   0.521
              0.119   0.119   0.070   0.119   0.070
   6  4.000   0.642   0.570   0.245   0.243   0.243   0.520   0.521   0.521
              0.118   0.118   0.070   0.119   0.070
   7  4.000   0.639   0.572   0.244   0.244   0.242   0.521   0.521   0.522
              0.119   0.119   0.070   0.119   0.070
   8  4.000   0.642   0.570   0.243   0.243   0.245   0.521   0.521   0.520
              0.118   0.119   0.070   0.118   0.070

mulliken: Qtot =       32.000

cgvc: Finished line minimization    1.  Mean atomic displacement =    0.0949

* Maximum dynamic memory allocated =   142 MB

siesta:                 ==============================
                            Begin CG move =      4
                        ==============================

outcoor: Atomic coordinates (Ang):                          
   -0.02727533   -0.02727460   -0.02726072   1       1  Si
    1.41471498    1.41471600    1.41471826   1       2  Si
    2.77263180    2.77263181   -0.00939793   1       3  Si
    4.21551782    4.21551691    1.43269123   1       4  Si
    2.77262913   -0.00940816    2.77263828   1       5  Si
    4.21551945    1.43269732    4.21550823   1       6  Si
   -0.00940857    2.77263062    2.77263945   1       7  Si
    1.43269682    4.21551705    4.21550649   1       8  Si
 Kpoints in:  108 . Kpoints trimmed:  108

siesta: k-grid: Number of k-points =   108
siesta: k-grid: Cutoff (effective) =    16.651 Ang
siesta: k-grid: Supercell and displacements
siesta: k-grid:    6   0   0      0.500
siesta: k-grid:    0   0   6      0.500
siesta: k-grid:    0   6   0      0.500
Naive supercell factors:     5    5    5

superc: Internal auxiliary supercell:     5 x     5 x     5  =     125
superc: Number of atoms, orbitals, and projectors:   1000  13000  16000

outcell: Unit cell vectors (Ang):
        5.550210    0.017671    0.017675
        0.017671    5.550210    0.017675
        0.017675    0.017675    5.550210

outcell: Cell vector modules (Ang)   :    5.550266    5.550266    5.550266
outcell: Cell angles (23,13,12) (deg):     89.6345     89.6345     89.6346
outcell: Cell volume (Ang**3)        :    170.9681
New_DM. Step:     5
Re-using DM from previous geometry...
Re-using DM without extrapolation (not allowed)
Density Matrix sparsity pattern changed.

InitMesh: MESH =    48 x    48 x    48 =      110592
InitMesh: Mesh cutoff (required, used) =   180.000   206.724 Ry

siesta: iscf   Eharris(eV)      E_KS(eV)   FreeEng(eV)   dDmax  Ef(eV)
siesta:    1    -1030.4716    -1030.0851    -1030.0851  0.0269 -4.8391
siesta:    2    -1030.5070    -1030.4211    -1030.4211  0.0316 -4.8414
siesta:    3    -1030.4511    -1030.3778    -1030.3778  0.0072 -4.8350
siesta:    4    -1030.4511    -1030.4441    -1030.4441  0.0012 -4.8350
siesta:    5    -1030.4510    -1030.4485    -1030.4485  0.0008 -4.8358

siesta: E_KS(eV) =            -1030.4482

siesta: Atomic forces (eV/Ang):
----------------------------------------
   Tot   -0.000068   -0.000096   -0.000118
----------------------------------------
   Max    0.698139
   Res    0.573062    sqrt( Sum f_i^2 / 3N )
----------------------------------------
   Max    0.698139    constrained

Stress-tensor-Voigt (kbar):       11.02       11.02       11.02       18.79       18.80       18.80
(Free)E + p*V (eV/cell)    -1031.6237
Target enthalpy (eV/cell)    -1030.4482

siesta: Stress tensor (static) (eV/Ang**3):
         0.006876    0.011727    0.011732
         0.011727    0.006876    0.011732
         0.011732    0.011732    0.006876

siesta: Pressure (static):        -11.01617912  kBar

siesta: Stress tensor (total) (eV/Ang**3):
         0.006876    0.011727    0.011732
         0.011727    0.006876    0.011732
         0.011732    0.011732    0.006876

siesta: Pressure (total):        -11.01617912  kBar

mulliken: Mulliken Atomic and Orbital Populations:

Species: Si                  
Atom  Qatom  Qorb
               3s      3s      3py     3pz     3px     3py     3pz     3px     
               3Pdxy   3Pdyz   3Pdz2   3Pdxz   3Pdx2-y2
   1  4.003   0.631   0.577   0.250   0.250   0.250   0.516   0.516   0.516
              0.118   0.118   0.070   0.118   0.070
   2  3.998   0.670   0.558   0.264   0.264   0.264   0.501   0.501   0.501
              0.114   0.114   0.066   0.114   0.066
   3  3.999   0.657   0.564   0.257   0.266   0.257   0.508   0.502   0.508
              0.116   0.115   0.067   0.115   0.069
   4  4.001   0.644   0.570   0.258   0.248   0.258   0.509   0.516   0.509
              0.116   0.117   0.070   0.117   0.068
   5  3.999   0.657   0.564   0.266   0.257   0.257   0.502   0.508   0.508
              0.115   0.115   0.068   0.116   0.067
   6  4.001   0.644   0.570   0.248   0.258   0.258   0.516   0.509   0.509
              0.117   0.117   0.069   0.116   0.069
   7  3.999   0.657   0.564   0.257   0.257   0.266   0.508   0.508   0.502
              0.115   0.116   0.068   0.115   0.067
   8  4.001   0.644   0.570   0.258   0.258   0.248   0.509   0.509   0.516
              0.117   0.116   0.069   0.117   0.069

mulliken: Qtot =       32.000

* Maximum dynamic memory allocated =   142 MB

siesta:                 ==============================
                            Begin CG move =      5
                        ==============================

outcoor: Atomic coordinates (Ang):                          
    0.00395164    0.00395149    0.00395206   1       1  Si
    1.38503287    1.38503277    1.38503261   1       2  Si
    2.76305942    2.76305939    0.00364305   1       3  Si
    4.14406318    4.14406330    1.38475505   1       4  Si
    2.76305950    0.00364307    2.76306000   1       5  Si
    4.14406348    1.38475566    4.14406338   1       6  Si
    0.00364304    2.76305962    2.76306016   1       7  Si
    1.38475577    4.14406344    4.14406329   1       8  Si
 Kpoints in:  108 . Kpoints trimmed:  108

siesta: k-grid: Number of k-points =   108
siesta: k-grid: Cutoff (effective) =    16.563 Ang
siesta: k-grid: Supercell and displacements
siesta: k-grid:    6   0   0      0.500
siesta: k-grid:    0   6   0      0.500
siesta: k-grid:    0   0   6      0.500
Naive supercell factors:     5    5    5

superc: Internal auxiliary supercell:     5 x     5 x     5  =     125
superc: Number of atoms, orbitals, and projectors:   1000  13000  16000

outcell: Unit cell vectors (Ang):
        5.520901   -0.000269   -0.000269
       -0.000269    5.520901   -0.000269
       -0.000269   -0.000269    5.520901

outcell: Cell vector modules (Ang)   :    5.520901    5.520901    5.520901
outcell: Cell angles (23,13,12) (deg):     90.0056     90.0056     90.0056
outcell: Cell volume (Ang**3)        :    168.2790
New_DM. Step:     6
Re-using DM from previous geometry...
Re-using DM without extrapolation (not allowed)
Density Matrix sparsity pattern changed.

InitMesh: MESH =    48 x    48 x    48 =      110592
InitMesh: Mesh cutoff (required, used) =   180.000   208.912 Ry

siesta: iscf   Eharris(eV)      E_KS(eV)   FreeEng(eV)   dDmax  Ef(eV)
siesta:    1    -1030.6756    -1030.9857    -1030.9857  0.0241 -4.9985
siesta:    2    -1030.7050    -1030.6349    -1030.6349  0.0253 -4.9950
siesta:    3    -1030.6596    -1030.7025    -1030.7025  0.0063 -4.9905
siesta:    4    -1030.6595    -1030.6463    -1030.6463  0.0009 -4.9893

siesta: E_KS(eV) =            -1030.6490

siesta: Atomic forces (eV/Ang):
----------------------------------------
   Tot   -0.005774   -0.005767   -0.005757
----------------------------------------
   Max    0.048097
   Res    0.039067    sqrt( Sum f_i^2 / 3N )
----------------------------------------
   Max    0.048097    constrained

Stress-tensor-Voigt (kbar):        1.81        1.81        1.81        0.11        0.11        0.11
(Free)E + p*V (eV/cell)    -1030.8395
Target enthalpy (eV/cell)    -1030.6490

siesta: Stress tensor (static) (eV/Ang**3):
         0.001132    0.000067    0.000067
         0.000067    0.001132    0.000067
         0.000067    0.000067    0.001132

siesta: Pressure (static):         -1.81307769  kBar

siesta: Stress tensor (total) (eV/Ang**3):
         0.001132    0.000067    0.000067
         0.000067    0.001132    0.000067
         0.000067    0.000067    0.001132

siesta: Pressure (total):         -1.81307769  kBar

mulliken: Mulliken Atomic and Orbital Populations:

Species: Si                  
Atom  Qatom  Qorb
               3s      3s      3py     3pz     3px     3py     3pz     3px     
               3Pdxy   3Pdyz   3Pdz2   3Pdxz   3Pdx2-y2
   1  4.000   0.643   0.570   0.245   0.245   0.245   0.519   0.519   0.519
              0.118   0.118   0.070   0.118   0.070
   2  4.000   0.640   0.572   0.244   0.244   0.244   0.521   0.521   0.521
              0.119   0.119   0.070   0.119   0.070
   3  4.000   0.641   0.571   0.245   0.244   0.245   0.520   0.520   0.520
              0.118   0.119   0.070   0.119   0.070
   4  4.000   0.642   0.571   0.244   0.245   0.244   0.520   0.519   0.520
              0.118   0.118   0.070   0.118   0.070
   5  4.000   0.641   0.571   0.244   0.245   0.245   0.520   0.520   0.520
              0.119   0.119   0.070   0.118   0.070
   6  4.000   0.642   0.571   0.245   0.244   0.244   0.519   0.520   0.520
              0.118   0.118   0.070   0.118   0.070
   7  4.000   0.641   0.571   0.245   0.245   0.244   0.520   0.520   0.520
              0.119   0.118   0.070   0.119   0.070
   8  4.000   0.642   0.571   0.244   0.244   0.245   0.520   0.520   0.519
              0.118   0.118   0.070   0.118   0.070

mulliken: Qtot =       32.000

cgvc: Finished line minimization    2.  Mean atomic displacement =    0.0096

* Maximum dynamic memory allocated =   142 MB

siesta:                 ==============================
                            Begin CG move =      6
                        ==============================

outcoor: Atomic coordinates (Ang):                          
    0.00055564    0.00055591    0.00055747   1       1  Si
    1.38539389    1.38539431    1.38539605   1       2  Si
    2.76727920    2.76727907    0.00358722   1       3  Si
    4.15239285    4.15239285    1.38846806   1       4  Si
    2.76727877    0.00358667    2.76727870   1       5  Si
    4.15239309    1.38846741    4.15239220   1       6  Si
    0.00358641    2.76727888    2.76727885   1       7  Si
    1.38846747    4.15239275    4.15239201   1       8  Si
 Kpoints in:  108 . Kpoints trimmed:  108

siesta: k-grid: Number of k-points =   108
siesta: k-grid: Cutoff (effective) =    16.569 Ang
siesta: k-grid: Supercell and displacements
siesta: k-grid:    0   0   6      0.500
siesta: k-grid:    6   0   0      0.500
siesta: k-grid:    0   6   0      0.500
Naive supercell factors:     5    5    5

superc: Internal auxiliary supercell:     5 x     5 x     5  =     125
superc: Number of atoms, orbitals, and projectors:   1000  13000  16000

outcell: Unit cell vectors (Ang):
        5.522985    0.003074    0.003075
        0.003074    5.522985    0.003075
        0.003075    0.003075    5.522985

outcell: Cell vector modules (Ang)   :    5.522987    5.522987    5.522987
outcell: Cell angles (23,13,12) (deg):     89.9362     89.9362     89.9362
outcell: Cell volume (Ang**3)        :    168.4695
New_DM. Step:     7
Re-using DM from previous geometry...
Re-using DM without extrapolation (not allowed)
Density Matrix sparsity pattern changed.

InitMesh: MESH =    48 x    48 x    48 =      110592
InitMesh: Mesh cutoff (required, used) =   180.000   208.755 Ry

siesta: iscf   Eharris(eV)      E_KS(eV)   FreeEng(eV)   dDmax  Ef(eV)
siesta:    1    -1030.6584    -1030.6186    -1030.6186  0.0023 -4.9930
siesta:    2    -1030.6612    -1030.6556    -1030.6556  0.0073 -4.9951
siesta:    3    -1030.6574    -1030.6420    -1030.6420  0.0019 -4.9937
siesta:    4    -1030.6574    -1030.6570    -1030.6570  0.0002 -4.9939

siesta: E_KS(eV) =            -1030.6573

siesta: Atomic forces (eV/Ang):
----------------------------------------
   Tot   -0.004295   -0.004289   -0.004301
----------------------------------------
   Max    0.075919
   Res    0.052890    sqrt( Sum f_i^2 / 3N )
----------------------------------------
   Max    0.075919    constrained

Stress-tensor-Voigt (kbar):        2.21        2.21        2.21        2.07        2.07        2.07
(Free)E + p*V (eV/cell)    -1030.8899
Target enthalpy (eV/cell)    -1030.6573

siesta: Stress tensor (static) (eV/Ang**3):
         0.001381    0.001293    0.001293
         0.001293    0.001381    0.001293
         0.001293    0.001293    0.001381

siesta: Pressure (static):         -2.21235741  kBar

siesta: Stress tensor (total) (eV/Ang**3):
         0.001381    0.001293    0.001293
         0.001293    0.001381    0.001293
         0.001293    0.001293    0.001381

siesta: Pressure (total):         -2.21235741  kBar

mulliken: Mulliken Atomic and Orbital Populations:

Species: Si                  
Atom  Qatom  Qorb
               3s      3s      3py     3pz     3px     3py     3pz     3px     
               3Pdxy   3Pdyz   3Pdz2   3Pdxz   3Pdx2-y2
   1  4.001   0.639   0.572   0.244   0.244   0.244   0.521   0.521   0.521
              0.119   0.119   0.070   0.119   0.070
   2  4.000   0.648   0.568   0.247   0.247   0.247   0.517   0.517   0.517
              0.118   0.118   0.069   0.118   0.069
   3  4.000   0.644   0.569   0.246   0.248   0.246   0.518   0.517   0.518
              0.118   0.118   0.069   0.118   0.070
   4  4.000   0.641   0.571   0.246   0.244   0.246   0.519   0.520   0.519
              0.118   0.118   0.070   0.118   0.070
   5  4.000   0.644   0.569   0.248   0.246   0.246   0.517   0.518   0.518
              0.118   0.118   0.070   0.118   0.069
   6  4.000   0.641   0.571   0.244   0.246   0.246   0.520   0.519   0.519
              0.118   0.118   0.070   0.118   0.070
   7  4.000   0.644   0.569   0.246   0.246   0.248   0.518   0.518   0.517
              0.118   0.118   0.070   0.118   0.069
   8  4.000   0.641   0.571   0.246   0.246   0.244   0.519   0.519   0.520
              0.118   0.118   0.070   0.118   0.070

mulliken: Qtot =       32.000

* Maximum dynamic memory allocated =   142 MB

siesta:                 ==============================
                            Begin CG move =      7
                        ==============================

outcoor: Atomic coordinates (Ang):                          
    0.00453013    0.00452991    0.00453031   1       1  Si
    1.38497067    1.38497049    1.38497001   1       2  Si
    2.76233915    2.76233913    0.00365269   1       3  Si
    4.14264207    4.14264221    1.38412207   1       4  Si
    2.76233931    0.00365280    2.76233991   1       5  Si
    4.14264238    1.38412289    4.14264241   1       6  Si
    0.00365281    2.76233944    2.76234007   1       7  Si
    1.38412301    4.14264239    4.14264234   1       8  Si
 Kpoints in:  108 . Kpoints trimmed:  108

siesta: k-grid: Number of k-points =   108
siesta: k-grid: Cutoff (effective) =    16.562 Ang
siesta: k-grid: Supercell and displacements
siesta: k-grid:    6   0   0      0.500
siesta: k-grid:    0   6   0      0.500
siesta: k-grid:    0   0   6      0.500
Naive supercell factors:     5    5    5

superc: Internal auxiliary supercell:     5 x     5 x     5  =     125
superc: Number of atoms, orbitals, and projectors:   1000  13000  16000

outcell: Unit cell vectors (Ang):
        5.520545   -0.000840   -0.000840
       -0.000840    5.520545   -0.000840
       -0.000840   -0.000840    5.520545

outcell: Cell vector modules (Ang)   :    5.520545    5.520545    5.520545
outcell: Cell angles (23,13,12) (deg):     90.0174     90.0174     90.0174
outcell: Cell volume (Ang**3)        :    168.2464
New_DM. Step:     8
Re-using DM from previous geometry...
Re-using DM without extrapolation (not allowed)
Density Matrix sparsity pattern changed.

InitMesh: MESH =    48 x    48 x    48 =      110592
InitMesh: Mesh cutoff (required, used) =   180.000   208.939 Ry

siesta: iscf   Eharris(eV)      E_KS(eV)   FreeEng(eV)   dDmax  Ef(eV)
siesta:    1    -1030.6605    -1030.6926    -1030.6926  0.0023 -4.9901
siesta:    2    -1030.6644    -1030.6567    -1030.6567  0.0083 -4.9906
siesta:    3    -1030.6592    -1030.6719    -1030.6719  0.0020 -4.9898
siesta:    4    -1030.6593    -1030.6587    -1030.6587  0.0001 -4.9896

siesta: E_KS(eV) =            -1030.6589

siesta: Atomic forces (eV/Ang):
----------------------------------------
   Tot   -0.004463   -0.004458   -0.004452
----------------------------------------
   Max    0.026561
   Res    0.019093    sqrt( Sum f_i^2 / 3N )
----------------------------------------
   Max    0.026561    constrained

Stress-tensor-Voigt (kbar):        1.09        1.09        1.09       -0.08       -0.08       -0.08
(Free)E + p*V (eV/cell)    -1030.7737
Target enthalpy (eV/cell)    -1030.6589

siesta: Stress tensor (static) (eV/Ang**3):
         0.000682   -0.000053   -0.000052
        -0.000053    0.000682   -0.000052
        -0.000052   -0.000052    0.000683

siesta: Pressure (static):         -1.09344949  kBar

siesta: Stress tensor (total) (eV/Ang**3):
         0.000682   -0.000053   -0.000052
        -0.000053    0.000682   -0.000052
        -0.000052   -0.000052    0.000683

siesta: Pressure (total):         -1.09344949  kBar

mulliken: Mulliken Atomic and Orbital Populations:

Species: Si                  
Atom  Qatom  Qorb
               3s      3s      3py     3pz     3px     3py     3pz     3px     
               3Pdxy   3Pdyz   3Pdz2   3Pdxz   3Pdx2-y2
   1  4.000   0.645   0.569   0.246   0.246   0.246   0.519   0.519   0.519
              0.118   0.118   0.069   0.118   0.069
   2  4.000   0.640   0.572   0.244   0.244   0.244   0.521   0.521   0.521
              0.119   0.119   0.070   0.119   0.070
   3  4.000   0.641   0.571   0.245   0.243   0.245   0.520   0.521   0.520
              0.118   0.119   0.070   0.119   0.070
   4  4.000   0.643   0.570   0.244   0.246   0.244   0.520   0.519   0.520
              0.118   0.118   0.070   0.118   0.070
   5  4.000   0.641   0.571   0.243   0.245   0.245   0.521   0.520   0.520
              0.119   0.119   0.070   0.118   0.070
   6  4.000   0.643   0.570   0.246   0.244   0.244   0.519   0.520   0.520
              0.118   0.118   0.070   0.118   0.070
   7  4.000   0.641   0.571   0.245   0.245   0.243   0.520   0.520   0.521
              0.119   0.118   0.070   0.119   0.070
   8  4.000   0.643   0.570   0.244   0.244   0.246   0.520   0.520   0.519
              0.118   0.118   0.070   0.118   0.070

mulliken: Qtot =       32.000

* Maximum dynamic memory allocated =   142 MB

outcoor: Relaxed atomic coordinates (Ang):                  
    0.00453013    0.00452991    0.00453031   1       1  Si
    1.38497067    1.38497049    1.38497001   1       2  Si
    2.76233915    2.76233913    0.00365269   1       3  Si
    4.14264207    4.14264221    1.38412207   1       4  Si
    2.76233931    0.00365280    2.76233991   1       5  Si
    4.14264238    1.38412289    4.14264241   1       6  Si
    0.00365281    2.76233944    2.76234007   1       7  Si
    1.38412301    4.14264239    4.14264234   1       8  Si

outcell: Unit cell vectors (Ang):
        5.520545   -0.000840   -0.000840
       -0.000840    5.520545   -0.000840
       -0.000840   -0.000840    5.520545

outcell: Cell vector modules (Ang)   :    5.520545    5.520545    5.520545
outcell: Cell angles (23,13,12) (deg):     90.0174     90.0174     90.0174
outcell: Cell volume (Ang**3)        :    168.2464

coxmol: Writing XMOL coordinates into file si.xyz                                                          
Writing WFSX for selected k-points in si.selected.WFSX

writewave: Wave Functions Coefficients

     Number of k-points =        1
        Number of Spins =        1
   Number of basis orbs =      104


                                                                  ******
            k-point =        1    0.000000  0.000000  0.000000
     Spin component =        1
 Num. wavefunctions =       50
Use readwfsx utility to print wavefunction coefficients from WFSX file
Computing bands...

siesta: Band k vectors (Bohr**-1):
  ik           k
   1    0.306162    0.306162    0.306162
   2    0.293915    0.293915    0.293915
   3    0.281669    0.281669    0.281669
   4    0.269422    0.269422    0.269422
   5    0.257176    0.257176    0.257176
   6    0.244929    0.244929    0.244929
   7    0.232683    0.232683    0.232683
   8    0.220436    0.220436    0.220436
   9    0.208190    0.208190    0.208190
  10    0.195944    0.195944    0.195944
  11    0.183697    0.183697    0.183697
  12    0.171451    0.171451    0.171451
  13    0.159204    0.159204    0.159204
  14    0.146958    0.146958    0.146958
  15    0.134711    0.134711    0.134711
  16    0.122465    0.122465    0.122465
  17    0.110218    0.110218    0.110218
  18    0.097972    0.097972    0.097972
  19    0.085725    0.085725    0.085725
  20    0.073479    0.073479    0.073479
  21    0.061232    0.061232    0.061232
  22    0.048986    0.048986    0.048986
  23    0.036739    0.036739    0.036739
  24    0.024493    0.024493    0.024493
  25    0.012246    0.012246    0.012246
  26    0.000000    0.000000    0.000000
  27    0.020411    0.000000    0.000000
  28    0.040822    0.000000    0.000000
  29    0.061232    0.000000    0.000000
  30    0.081643    0.000000    0.000000
  31    0.102054    0.000000    0.000000
  32    0.122465    0.000000    0.000000
  33    0.142876    0.000000    0.000000
  34    0.163286    0.000000    0.000000
  35    0.183697    0.000000    0.000000
  36    0.204108    0.000000    0.000000
  37    0.224519    0.000000    0.000000
  38    0.244929    0.000000    0.000000
  39    0.265340    0.000000    0.000000
  40    0.285751    0.000000    0.000000
  41    0.306162    0.000000    0.000000
  42    0.326573    0.000000    0.000000
  43    0.346983    0.000000    0.000000
  44    0.367394    0.000000    0.000000
  45    0.387805    0.000000    0.000000
  46    0.408216    0.000000    0.000000
  47    0.428627    0.000000    0.000000
  48    0.449037    0.000000    0.000000
  49    0.469448    0.000000    0.000000
  50    0.489859    0.000000    0.000000
  51    0.510270    0.000000    0.000000
  52    0.530680    0.000000    0.000000
  53    0.551091    0.000000    0.000000
  54    0.571502    0.000000    0.000000
  55    0.591913    0.000000    0.000000
  56    0.612324    0.000000    0.000000
  57    0.612324    0.015308    0.015308
  58    0.612324    0.030616    0.030616
  59    0.612324    0.045924    0.045924
  60    0.612324    0.061232    0.061232
  61    0.612324    0.076540    0.076540
  62    0.612324    0.091849    0.091849
  63    0.612324    0.107157    0.107157
  64    0.612324    0.122465    0.122465
  65    0.612324    0.137773    0.137773
  66    0.612324    0.153081    0.153081
  67    0.594829    0.148707    0.148707
  68    0.577334    0.144333    0.144333
  69    0.559839    0.139960    0.139960
  70    0.542344    0.135586    0.135586
  71    0.524849    0.131212    0.131212
  72    0.507354    0.126838    0.126838
  73    0.489859    0.122465    0.122465
  74    0.472364    0.118091    0.118091
  75    0.454869    0.113717    0.113717
  76    0.437374    0.109344    0.109344
  77    0.419879    0.104970    0.104970
  78    0.402384    0.100596    0.100596
  79    0.384889    0.096222    0.096222
  80    0.367394    0.091849    0.091849
  81    0.349899    0.087475    0.087475
  82    0.332404    0.083101    0.083101
  83    0.314909    0.078727    0.078727
  84    0.297414    0.074354    0.074354
  85    0.279919    0.069980    0.069980
  86    0.262424    0.065606    0.065606
  87    0.244929    0.061232    0.061232
  88    0.227434    0.056859    0.056859
  89    0.209940    0.052485    0.052485
  90    0.192445    0.048111    0.048111
  91    0.174950    0.043737    0.043737
  92    0.157455    0.039364    0.039364
  93    0.139960    0.034990    0.034990
  94    0.122465    0.030616    0.030616
  95    0.104970    0.026242    0.026242
  96    0.087475    0.021869    0.021869
  97    0.069980    0.017495    0.017495
  98    0.052485    0.013121    0.013121
  99    0.034990    0.008747    0.008747
 100    0.017495    0.004374    0.004374
 101    0.000000    0.000000    0.000000

siesta: Band energies (eV):
  ik is    eps
   1  1 -14.87 -14.86 -14.86 -14.85 -12.20 -12.20 -12.20 -12.18  -6.60  -6.60
         -6.59  -6.59  -6.59  -6.59  -6.58  -6.58  -4.00  -3.99  -3.99  -3.99
         -1.95  -1.95  -1.94  -1.93  -1.93  -1.93  -1.93  -1.93   3.49   3.51
          3.51   3.53   5.50   5.50   5.50   5.54   5.54   5.58   5.59   5.59
          5.92   5.96   5.96   5.96   6.05   6.05   6.05   6.11   6.11   6.13
          6.13   6.13   8.36   8.36   8.36   8.37  16.42  16.42  16.42  16.43
         17.37  17.37  17.38  17.39  17.39  17.39  17.40  17.40  19.37  19.37
         19.37  19.38  19.38  19.38  19.40  19.40  19.92  19.92  19.92  19.99
         28.93  28.93  28.93  28.94  28.94  28.95  28.95  28.95  65.11  65.26
         65.26  65.34  78.95  78.95  79.11  79.33  79.33  79.43  79.72  79.72
        115.77 116.71 116.71 116.77
   2  1 -14.87 -14.86 -14.86 -14.85 -12.20 -12.20 -12.20 -12.18  -6.61  -6.61
         -6.60  -6.60  -6.60  -6.60  -6.58  -6.58  -4.00  -3.98  -3.98  -3.98
         -1.95  -1.95  -1.94  -1.93  -1.93  -1.93  -1.92  -1.92   3.49   3.51
          3.51   3.52   5.43   5.43   5.43   5.48   5.48   5.58   5.58   5.58
          5.91   5.97   5.97   5.97   6.05   6.05   6.05   6.18   6.18   6.20
          6.20   6.20   8.36   8.36   8.36   8.37  16.41  16.42  16.42  16.42
         17.36  17.36  17.38  17.38  17.38  17.38  17.39  17.39  19.37  19.37
         19.37  19.37  19.37  19.38  19.41  19.41  19.87  19.87  19.87  20.01
         28.92  28.92  28.92  28.94  28.94  28.95  28.95  28.95  64.98  65.24
         65.24  65.29  78.02  78.02  78.08  78.99  78.99  79.06  79.57  79.57
        115.42 116.83 116.83 116.87
   3  1 -14.91 -14.85 -14.85 -14.85 -12.18 -12.18 -12.18 -12.11  -6.69  -6.69
         -6.69  -6.62  -6.62  -6.62  -6.58  -6.58  -3.99  -3.89  -3.89  -3.89
         -1.96  -1.96  -1.96  -1.93  -1.93  -1.88  -1.88  -1.88   3.46   3.47
          3.47   3.50   4.98   4.98   4.98   5.11   5.11   5.55   5.56   5.56
          5.80   6.02   6.02   6.02   6.10   6.10   6.10   6.58   6.58   6.71
          6.71   6.71   8.40   8.40   8.40   8.47  16.30  16.40  16.40  16.40
         17.21  17.21  17.27  17.27  17.27  17.34  17.34  17.34  19.32  19.32
         19.32  19.33  19.33  19.33  19.45  19.45  19.46  19.51  19.51  20.19
         28.79  28.79  28.79  28.99  28.99  29.01  29.01  29.01  63.29  64.45
         64.45  64.47  70.41  70.41  70.42  75.37  75.38  75.38  79.20  79.20
        111.70 114.86 114.86 114.89
   4  1 -14.99 -14.84 -14.84 -14.84 -12.16 -12.16 -12.16 -11.99  -6.85  -6.85
         -6.85  -6.66  -6.66  -6.66  -6.57  -6.57  -3.98  -3.73  -3.73  -3.73
         -1.99  -1.99  -1.99  -1.92  -1.92  -1.80  -1.80  -1.80   3.35   3.35
          3.35   3.46   4.60   4.60   4.60   4.72   4.72   5.51   5.51   5.51
          5.61   6.09   6.09   6.09   6.17   6.17   6.17   7.03   7.03   7.26
          7.26   7.26   8.47   8.47   8.47   8.62  16.13  16.30  16.30  16.31
         16.94  16.94  17.07  17.07  17.07  17.29  17.29  17.29  18.77  18.77
         18.77  19.22  19.22  19.22  19.38  19.38  19.38  19.67  19.67  20.50
         28.54  28.54  28.54  29.08  29.08  29.16  29.16  29.16  58.93  58.93
         58.94  60.17  67.30  67.30  67.30  70.08  70.08  70.09  78.73  78.73
        106.24 106.72 106.72 106.76
   5  1 -15.10 -14.83 -14.83 -14.83 -12.13 -12.13 -12.13 -11.82  -7.05  -7.05
         -7.05  -6.72  -6.72  -6.72  -6.55  -6.55  -3.96  -3.55  -3.55  -3.55
         -2.01  -2.01  -2.01  -1.91  -1.91  -1.68  -1.68  -1.68   3.11   3.11
          3.11   3.41   4.34   4.34   4.35   4.35   4.35   5.39   5.47   5.47
          5.47   6.18   6.18   6.18   6.26   6.26   6.26   7.50   7.50   7.79
          7.79   7.79   8.61   8.61   8.61   8.77  15.95  16.09  16.09  16.09
         16.61  16.61  16.79  16.79  16.79  17.25  17.25  17.25  18.20  18.20
         18.20  19.06  19.06  19.06  19.38  19.38  19.38  19.85  19.85  20.89
         28.17  28.17  28.17  29.20  29.20  29.44  29.44  29.44  52.04  52.04
         52.05  56.06  64.90  64.91  64.91  67.18  67.18  67.18  78.03  78.03
         96.71  96.71  96.72 100.77
   6  1 -15.23 -14.81 -14.81 -14.81 -12.08 -12.08 -12.08 -11.61  -7.27  -7.27
         -7.27  -6.80  -6.80  -6.80  -6.53  -6.53  -3.93  -3.38  -3.38  -3.38
         -2.00  -2.00  -2.00  -1.89  -1.89  -1.52  -1.52  -1.52   2.75   2.75
          2.75   3.34   3.97   3.97   4.25   4.25   4.25   5.17   5.43   5.43
          5.43   6.29   6.30   6.30   6.37   6.37   6.37   7.98   7.98   8.21
          8.21   8.21   8.89   8.90   8.90   8.90  15.75  15.75  15.75  15.81
         16.23  16.23  16.45  16.45  16.45  17.20  17.20  17.20  17.86  17.86
         17.86  18.86  18.86  18.86  19.40  19.40  19.40  20.03  20.03  21.33
         27.69  27.69  27.69  29.36  29.36  29.83  29.83  29.83  46.30  46.30
         46.30  51.61  60.76  60.77  60.77  67.16  67.16  67.16  77.12  77.12
         88.87  88.87  88.87  95.97
   7  1 -15.37 -14.79 -14.79 -14.79 -12.03 -12.03 -12.03 -11.37  -7.51  -7.51
         -7.51  -6.89  -6.89  -6.89  -6.50  -6.50  -3.90  -3.26  -3.26  -3.26
         -1.91  -1.91  -1.91  -1.87  -1.87  -1.33  -1.33  -1.33   2.31   2.31
          2.31   3.22   3.63   3.63   4.24   4.24   4.24   4.99   5.39   5.39
          5.39   6.42   6.42   6.42   6.48   6.48   6.48   8.44   8.44   8.44
          8.46   8.46   8.95   9.40   9.40   9.40  15.35  15.35  15.35  15.72
         15.83  15.83  16.07  16.07  16.07  17.06  17.06  17.06  17.77  17.77
         17.77  18.62  18.62  18.62  19.46  19.46  19.46  20.20  20.20  21.82
         27.12  27.12  27.12  29.53  29.53  30.33  30.33  30.33  41.67  41.67
         41.67  47.39  57.86  57.86  57.86  66.76  66.76  66.77  76.06  76.06
         84.13  84.13  84.13  91.86
   8  1 -15.51 -14.76 -14.76 -14.76 -11.98 -11.98 -11.98 -11.10  -7.75  -7.75
         -7.75  -6.98  -6.98  -6.98  -6.46  -6.46  -3.85  -3.22  -3.22  -3.22
         -1.85  -1.85  -1.74  -1.74  -1.74  -1.12  -1.12  -1.12   1.84   1.84
          1.84   3.05   3.31   3.31   4.28   4.28   4.28   4.87   5.36   5.36
          5.36   6.55   6.55   6.55   6.59   6.59   6.59   8.61   8.61   8.61
          8.92   8.93   8.93   9.99   9.99   9.99  14.94  14.94  14.94  15.43
         15.43  15.67  15.67  15.67  15.69  16.88  16.88  16.88  17.85  17.85
         17.85  18.34  18.34  18.34  19.54  19.54  19.54  20.35  20.35  22.35
         26.49  26.49  26.49  29.72  29.72  30.90  30.90  30.91  37.98  37.98
         37.98  43.74  56.07  56.07  56.07  65.86  65.86  65.87  74.93  74.93
         81.87  81.88  81.88  88.18
   9  1 -15.65 -14.72 -14.72 -14.72 -11.92 -11.91 -11.91 -10.81  -7.98  -7.98
         -7.98  -7.08  -7.08  -7.08  -6.42  -6.42  -3.81  -3.26  -3.26  -3.26
         -1.84  -1.84  -1.48  -1.48  -1.48  -0.87  -0.87  -0.87   1.36   1.36
          1.36   2.83   3.01   3.01   4.34   4.34   4.34   4.81   5.34   5.34
          5.34   6.67   6.67   6.67   6.71   6.71   6.71   8.76   8.76   8.76
          8.81   9.38   9.38  10.61  10.61  10.61  14.53  14.53  14.53  15.05
         15.05  15.26  15.26  15.26  15.73  16.71  16.71  16.71  17.98  17.98
         17.98  18.03  18.03  18.03  19.67  19.67  19.67  20.48  20.48  22.92
         25.82  25.82  25.82  29.92  29.92  31.47  31.47  31.47  35.10  35.10
         35.10  40.76  55.16  55.16  55.16  64.57  64.57  64.57  73.84  73.84
         81.10  81.10  81.10  84.67
  10  1 -15.80 -14.68 -14.68 -14.68 -11.85 -11.85 -11.85 -10.51  -8.20  -8.20
         -8.20  -7.18  -7.18  -7.18  -6.37  -6.37  -3.75  -3.34  -3.34  -3.34
         -1.82  -1.82  -1.16  -1.16  -1.16  -0.61  -0.61  -0.61   0.88   0.88
          0.88   2.56   2.74   2.74   4.43   4.43   4.43   4.81   5.33   5.33
          5.33   6.79   6.79   6.79   6.82   6.82   6.82   8.62   8.93   8.93
          8.93   9.77   9.77  11.21  11.21  11.21  14.12  14.12  14.13  14.73
         14.73  14.85  14.85  14.85  15.82  16.57  16.57  16.57  17.68  17.68
         17.68  18.13  18.13  18.13  19.84  19.84  19.84  20.59  20.59  23.55
         25.13  25.13  25.14  30.14  30.14  31.64  31.64  31.64  33.20  33.20
         33.21  38.41  54.92  54.92  54.92  62.96  62.96  62.96  72.93  72.93
         80.92  80.93  80.93  81.21
  11  1 -15.94 -14.63 -14.63 -14.63 -11.80 -11.80 -11.80 -10.19  -8.41  -8.41
         -8.41  -7.28  -7.28  -7.28  -6.32  -6.32  -3.69  -3.44  -3.44  -3.44
         -1.82  -1.82  -0.80  -0.80  -0.80  -0.32  -0.32  -0.32   0.40   0.40
          0.40   2.27   2.51   2.51   4.52   4.52   4.52   4.85   5.32   5.32
          5.32   6.89   6.89   6.89   6.93   6.93   6.93   8.35   9.12   9.12
          9.12  10.07  10.07  11.80  11.80  11.80  13.71  13.71  13.71  14.44
         14.44  14.44  14.51  14.51  15.95  16.49  16.49  16.49  17.32  17.32
         17.32  18.27  18.27  18.27  20.04  20.04  20.04  20.68  20.68  24.20
         24.46  24.46  24.46  30.36  30.36  30.42  30.42  30.42  33.07  33.07
         33.07  36.66  55.17  55.17  55.17  60.98  60.98  60.98  72.34  72.34
         77.71  80.83  80.83  80.83
  12  1 -16.07 -14.58 -14.58 -14.58 -11.75 -11.75 -11.75  -9.86  -8.59  -8.59
         -8.59  -7.39  -7.39  -7.39  -6.26  -6.26  -3.62  -3.56  -3.56  -3.56
         -1.83  -1.83  -0.42  -0.42  -0.42  -0.07  -0.07  -0.07  -0.02  -0.01
         -0.01   1.96   2.31   2.31   4.62   4.62   4.62   4.92   5.33   5.33
          5.33   6.98   6.98   6.98   7.03   7.03   7.03   8.04   9.36   9.36
          9.36  10.24  10.24  12.35  12.35  12.35  13.30  13.30  13.30  14.03
         14.03  14.03  14.44  14.44  16.09  16.45  16.45  16.45  16.94  16.95
         16.95  18.39  18.39  18.39  20.27  20.27  20.27  20.74  20.74  23.79
         23.79  23.79  24.78  28.97  28.97  28.97  30.61  30.61  33.37  33.37
         33.37  35.48  55.78  55.78  55.78  58.52  58.52  58.52  72.20  72.20
         74.24  80.51  80.51  80.51
  13  1 -16.20 -14.52 -14.52 -14.52 -11.71 -11.71 -11.71  -9.52  -8.74  -8.74
         -8.74  -7.49  -7.49  -7.49  -6.20  -6.20  -3.68  -3.68  -3.68  -3.55
         -1.85  -1.85  -0.54  -0.54  -0.54  -0.02  -0.02  -0.02   0.31   0.31
          0.31   1.64   2.15   2.15   4.72   4.72   4.72   5.01   5.34   5.34
          5.34   7.04   7.04   7.04   7.12   7.12   7.12   7.69   9.64   9.64
          9.64  10.23  10.23  12.66  12.66  12.66  13.10  13.10  13.10  13.62
         13.62  13.62  14.56  14.56  16.25  16.45  16.45  16.45  16.57  16.58
         16.58  18.48  18.48  18.48  20.51  20.51  20.51  20.79  20.79  23.15
         23.15  23.15  25.15  27.72  27.72  27.72  30.88  30.88  33.53  33.53
         33.53  34.89  55.57  55.57  55.57  56.64  56.64  56.64  70.90  72.63
         72.63  79.89  79.89  79.89
  14  1 -16.32 -14.45 -14.45 -14.45 -11.70 -11.70 -11.70  -9.16  -8.85  -8.85
         -8.85  -7.58  -7.58  -7.58  -6.13  -6.13  -3.80  -3.80  -3.80  -3.47
         -1.89  -1.89  -1.00  -1.00  -1.00   0.39   0.39   0.40   0.64   0.65
          0.65   1.30   2.04   2.04   4.81   4.81   4.81   5.10   5.36   5.36
          5.36   7.09   7.09   7.09   7.20   7.20   7.20   7.33   9.98   9.98
          9.98  10.06  10.06  12.31  12.31  12.31  13.20  13.20  13.20  13.51
         13.51  13.51  14.85  14.85  16.22  16.22  16.22  16.43  16.49  16.49
         16.50  18.54  18.54  18.54  20.76  20.76  20.76  20.83  20.83  22.53
         22.53  22.53  25.16  26.66  26.66  26.66  31.18  31.18  33.49  33.49
         33.49  34.91  52.29  52.29  52.29  57.67  57.67  57.67  67.86  73.77
         73.77  79.00  79.00  79.00
  15  1 -16.43 -14.38 -14.38 -14.38 -11.71 -11.71 -11.71  -8.92  -8.92  -8.92
         -8.80  -7.67  -7.67  -7.67  -6.05  -6.05  -3.91  -3.91  -3.91  -3.39
         -1.95  -1.95  -1.44  -1.44  -1.44   0.81   0.81   0.81   0.96   1.00
          1.00   1.00   1.96   1.96   4.90   4.90   4.90   5.17   5.39   5.39
          5.39   7.00   7.13   7.13   7.13   7.26   7.26   7.26   9.78   9.78
         10.36  10.36  10.36  11.87  11.87  11.87  12.76  12.76  12.76  13.98
         13.98  13.98  15.27  15.27  15.91  15.91  15.91  16.56  16.57  16.57
         16.64  18.58  18.58  18.58  20.84  20.84  21.01  21.01  21.01  21.94
         21.94  21.94  24.76  25.78  25.78  25.78  31.52  31.52  33.24  33.24
         33.24  35.42  48.94  48.94  48.94  58.81  58.81  58.81  65.34  75.74
         75.74  77.91  77.91  77.91
  16  1 -16.54 -14.29 -14.29 -14.29 -11.75 -11.75 -11.75  -8.95  -8.95  -8.95
         -8.43  -7.75  -7.75  -7.75  -5.98  -5.98  -4.02  -4.02  -4.02  -3.30
         -2.02  -2.02  -1.86  -1.86  -1.86   0.61   1.24   1.24   1.24   1.36
          1.36   1.36   1.93   1.93   4.99   4.99   4.99   5.20   5.43   5.43
          5.43   6.71   7.14   7.14   7.14   7.32   7.32   7.32   9.44   9.44
         10.74  10.74  10.74  11.46  11.46  11.46  12.29  12.29  12.29  14.44
         14.44  14.44  15.64  15.64  15.64  15.76  15.76  16.66  16.66  16.66
         16.86  18.58  18.58  18.58  20.84  20.84  21.23  21.23  21.23  21.38
         21.38  21.38  24.05  25.03  25.03  25.03  31.89  31.89  32.82  32.82
         32.82  36.14  45.80  45.80  45.80  60.00  60.00  60.00  63.60  76.70
         76.70  76.71  78.71  78.71
  17  1 -16.63 -14.21 -14.21 -14.20 -11.82 -11.82 -11.82  -8.93  -8.93  -8.93
         -8.06  -7.83  -7.83  -7.83  -5.90  -5.90  -4.12  -4.12  -4.12  -3.22
         -2.27  -2.27  -2.27  -2.11  -2.11   0.25   1.66   1.66   1.66   1.73
          1.73   1.73   1.93   1.93   5.07   5.07   5.07   5.15   5.47   5.47
          5.47   6.52   7.15   7.15   7.15   7.35   7.35   7.35   9.07   9.07
         10.75  10.75  10.75  11.45  11.45  11.45  11.81  11.81  11.81  14.86
         14.86  14.86  15.43  15.43  15.43  16.28  16.28  16.77  16.77  16.77
         17.09  18.57  18.57  18.57  20.82  20.82  20.85  20.85  20.85  21.41
         21.41  21.41  23.17  24.40  24.40  24.40  32.26  32.26  32.28  32.31
         32.31  36.70  43.07  43.07  43.07  61.22  61.22  61.22  62.95  75.46
         75.46  75.47  82.82  82.82
  18  1 -16.72 -14.11 -14.11 -14.11 -11.92 -11.92 -11.92  -8.88  -8.88  -8.88
         -7.90  -7.90  -7.90  -7.68  -5.82  -5.82  -4.21  -4.21  -4.21  -3.13
         -2.66  -2.65  -2.65  -2.21  -2.21  -0.11   1.97   1.97   2.08   2.08
          2.08   2.10   2.10   2.10   5.02   5.15   5.15   5.16   5.52   5.52
          5.52   6.44   7.15   7.15   7.15   7.37   7.37   7.37   8.68   8.68
         10.35  10.35  10.35  11.30  11.30  11.30  11.88  11.88  11.88  15.23
         15.23  15.23  15.28  15.28  15.28  16.81  16.81  16.87  16.88  16.88
         17.32  18.54  18.54  18.54  20.35  20.35  20.35  20.79  20.79  21.50
         21.50  21.50  22.21  23.87  23.87  23.87  31.74  31.74  31.74  32.68
         32.68  36.83  40.80  40.80  40.80  62.42  62.42  62.42  63.60  74.23
         74.23  74.23  88.23  88.23
  19  1 -16.80 -14.01 -14.01 -14.00 -12.04 -12.04 -12.04  -8.80  -8.80  -8.80
         -7.97  -7.97  -7.97  -7.31  -5.74  -5.74  -4.29  -4.29  -4.29  -3.04
         -3.02  -3.02  -3.02  -2.32  -2.32  -0.47   2.04   2.04   2.48   2.48
          2.48   2.50   2.50   2.50   4.83   5.24   5.24   5.24   5.58   5.58
          5.58   6.44   7.14   7.14   7.14   7.38   7.38   7.38   8.31   8.31
          9.90   9.90   9.90  10.78  10.78  10.78  12.38  12.38  12.38  15.18
         15.18  15.18  15.56  15.56  15.56  16.98  16.98  16.98  17.32  17.32
         17.53  18.52  18.52  18.52  19.88  19.88  19.88  20.75  20.75  21.29
         21.50  21.50  21.50  23.42  23.42  23.42  31.28  31.28  31.28  33.07
         33.07  36.49  38.97  38.97  38.97  63.57  63.58  63.58  65.63  73.04
         73.04  73.05  95.04  95.04
  20  1 -16.86 -13.89 -13.89 -13.89 -12.18 -12.18 -12.18  -8.69  -8.69  -8.69
         -8.02  -8.02  -8.02  -6.93  -5.66  -5.66  -4.36  -4.36  -4.36  -3.35
         -3.35  -3.35  -2.96  -2.43  -2.43  -0.83   2.12   2.12   2.85   2.85
          2.85   2.90   2.90   2.90   4.65   5.33   5.33   5.33   5.64   5.64
          5.64   6.49   7.13   7.13   7.13   7.38   7.38   7.38   7.96   7.96
          9.44   9.44   9.44  10.25  10.25  10.25  12.89  12.89  12.89  15.14
         15.14  15.14  15.82  15.82  15.82  17.06  17.07  17.07  17.66  17.79
         17.79  18.49  18.49  18.49  19.45  19.45  19.45  20.50  20.68  20.68
         21.40  21.40  21.40  23.03  23.03  23.03  31.00  31.01  31.01  33.43
         33.43  35.82  37.52  37.52  37.52  64.66  64.66  64.66  68.99  71.92
         71.92  71.93 103.23 103.23
  21  1 -16.92 -13.78 -13.78 -13.78 -12.32 -12.32 -12.32  -8.57  -8.57  -8.57
         -8.07  -8.07  -8.07  -6.56  -5.58  -5.58  -4.42  -4.42  -4.42  -3.66
         -3.66  -3.66  -2.89  -2.54  -2.54  -1.18   2.22   2.22   3.22   3.22
          3.22   3.28   3.28   3.28   4.52   5.42   5.42   5.42   5.71   5.71
          5.71   6.55   7.12   7.12   7.12   7.38   7.38   7.38   7.63   7.63
          8.99   8.99   8.99   9.73   9.73   9.73  13.40  13.40  13.40  15.15
         15.15  15.15  16.01  16.01  16.01  17.12  17.12  17.12  17.63  18.23
         18.23  18.44  18.45  18.45  19.06  19.06  19.06  19.96  20.60  20.60
         21.25  21.25  21.25  22.68  22.68  22.68  30.94  30.95  30.95  33.75
         33.75  35.06  36.36  36.36  36.36  65.64  65.64  65.64  70.90  70.90
         70.90  73.74 112.59 112.59
  22  1 -16.96 -13.65 -13.65 -13.65 -12.47 -12.47 -12.47  -8.45  -8.45  -8.45
         -8.11  -8.11  -8.11  -6.21  -5.52  -5.52  -4.47  -4.47  -4.47  -3.93
         -3.93  -3.93  -2.83  -2.63  -2.63  -1.52   2.32   2.32   3.56   3.56
          3.56   3.62   3.62   3.62   4.49   5.54   5.54   5.54   5.80   5.80
          5.80   6.61   7.11   7.11   7.11   7.34   7.34   7.38   7.38   7.38
          8.56   8.56   8.56   9.23   9.23   9.23  13.91  13.91  13.91  15.18
         15.18  15.18  16.14  16.14  16.14  17.14  17.14  17.14  17.37  18.37
         18.37  18.37  18.63  18.63  18.71  18.71  18.71  19.75  20.50  20.50
         21.12  21.12  21.12  22.37  22.37  22.37  31.09  31.09  31.09  34.02
         34.02  34.44  35.41  35.41  35.41  66.49  66.50  66.50  69.98  69.98
         69.99  80.41 122.59 122.59
  23  1 -16.99 -13.52 -13.52 -13.52 -12.63 -12.63 -12.63  -8.34  -8.34  -8.34
         -8.14  -8.14  -8.14  -5.89  -5.46  -5.46  -4.51  -4.50  -4.50  -4.15
         -4.15  -4.15  -2.79  -2.71  -2.71  -1.81   2.42   2.42   3.86   3.86
          3.86   3.91   3.91   3.91   4.59   5.68   5.68   5.68   5.89   5.89
          5.89   6.67   7.10   7.10   7.10   7.11   7.11   7.39   7.39   7.39
          8.14   8.14   8.14   8.76   8.76   8.76  14.40  14.40  14.40  15.24
         15.24  15.24  16.23  16.23  16.23  16.99  17.08  17.08  17.08  18.24
         18.24  18.24  18.42  18.42  18.42  18.98  18.98  19.76  20.37  20.37
         21.06  21.06  21.06  22.09  22.09  22.09  31.39  31.39  31.39  34.10
         34.23  34.23  34.62  34.62  34.62  67.19  67.19  67.19  69.22  69.22
         69.22  90.44 132.36 132.36
  24  1 -17.01 -13.38 -13.38 -13.38 -12.79 -12.79 -12.79  -8.25  -8.25  -8.25
         -8.16  -8.16  -8.16  -5.62  -5.41  -5.41  -4.53  -4.53  -4.53  -4.33
         -4.33  -4.33  -2.79  -2.78  -2.78  -2.04   2.50   2.50   4.10   4.10
          4.10   4.13   4.13   4.13   4.84   5.85   5.85   5.85   5.98   5.98
          5.98   6.71   6.93   6.93   7.10   7.10   7.10   7.43   7.43   7.44
          7.76   7.76   7.76   8.33   8.33   8.33  14.85  14.85  14.85  15.30
         15.30  15.30  16.29  16.29  16.29  16.65  16.94  16.94  16.94  18.12
         18.12  18.12  18.20  18.20  18.20  19.29  19.29  19.85  20.23  20.23
         21.10  21.10  21.10  21.83  21.83  21.83  31.80  31.80  31.80  33.95
         33.95  33.95  34.14  34.38  34.38  67.71  67.71  67.71  68.64  68.64
         68.64 106.85 140.71 140.71
  25  1 -17.02 -13.24 -13.24 -13.24 -12.94 -12.94 -12.94  -8.19  -8.19  -8.19
         -8.17  -8.17  -8.17  -5.43  -5.38  -5.38  -4.53  -4.53  -4.53  -4.45
         -4.45  -4.45  -2.82  -2.82  -2.81  -2.18   2.55   2.55   4.25   4.25
          4.25   4.26   4.26   4.26   5.16   6.01   6.01   6.02   6.06   6.06
          6.06   6.75   6.81   6.81   7.13   7.13   7.13   7.44   7.44   7.44
          7.53   7.53   7.53   7.97   7.97   7.97  15.21  15.21  15.21  15.34
         15.34  15.35  16.35  16.36  16.36  16.42  16.72  16.72  16.72  18.03
         18.03  18.03  18.05  18.06  18.06  19.55  19.55  19.93  20.06  20.06
         21.21  21.21  21.21  21.60  21.60  21.60  32.27  32.27  32.27  33.34
         33.34  33.34  34.42  34.48  34.48  68.02  68.02  68.03  68.27  68.28
         68.28 131.47 146.39 146.39
  26  1 -17.03 -13.10 -13.10 -13.10 -13.09 -13.09 -13.09  -8.18  -8.18  -8.18
         -8.17  -8.17  -8.17  -5.37  -5.37  -5.36  -4.52  -4.52  -4.52  -4.50
         -4.50  -4.50  -2.83  -2.83  -2.83  -2.22   2.57   2.57   4.30   4.30
          4.30   4.30   4.31   4.31   5.31   6.08   6.08   6.09   6.09   6.10
          6.10   6.77   6.77   6.77   7.22   7.22   7.22   7.23   7.23   7.23
          7.70   7.70   7.70   7.71   7.71   7.71  15.36  15.36  15.36  15.37
         15.37  15.37  16.34  16.48  16.49  16.49  16.50  16.50  16.50  17.99
         17.99  18.00  18.00  18.01  18.01  19.70  19.70  19.95  19.95  19.96
         21.38  21.38  21.38  21.39  21.39  21.40  32.77  32.78  32.78  32.80
         32.80  32.81  34.51  34.51  34.59  68.08  68.08  68.14  68.14  68.21
         68.21 147.62 148.41 148.41
  27  1 -17.02 -13.34 -13.10 -13.10 -13.09 -13.09 -12.84  -8.19  -8.19  -8.19
         -8.18  -8.17  -8.17  -5.41  -5.40  -5.39  -4.57  -4.49  -4.49  -4.48
         -4.48  -4.44  -2.84  -2.80  -2.80  -2.18   2.53   2.58   4.24   4.24
          4.26   4.26   4.27   4.27   5.17   5.98   5.98   5.99   5.99   6.16
          6.16   6.77   6.78   6.82   6.97   7.30   7.30   7.30   7.30   7.34
          7.46   7.77   7.77   7.78   7.78   8.07  15.26  15.26  15.29  15.29
         15.30  15.30  16.17  16.41  16.56  16.56  16.58  16.58  16.78  17.99
         17.99  18.00  18.00  18.11  18.12  19.50  19.67  19.90  19.91  20.17
         21.11  21.39  21.39  21.40  21.40  21.75  31.96  32.78  32.78  32.80
         32.80  33.73  34.26  34.31  34.81  68.05  68.05  68.16  68.17  68.24
         68.24 137.06 143.24 143.71
  28  1 -17.01 -13.58 -13.09 -13.09 -13.08 -13.08 -12.58  -8.23  -8.23  -8.23
         -8.22  -8.16  -8.15  -5.52  -5.46  -5.45  -4.61  -4.41  -4.41  -4.40
         -4.40  -4.36  -2.87  -2.72  -2.72  -2.08   2.42   2.59   4.07   4.07
          4.15   4.15   4.16   4.16   4.85   5.77   5.77   5.79   5.79   6.34
          6.34   6.70   6.78   6.79   6.96   7.00   7.39   7.40   7.40   7.40
          7.66   8.01   8.01   8.02   8.02   8.46  15.00  15.00  15.11  15.11
         15.13  15.13  15.82  16.63  16.76  16.76  16.77  16.77  17.01  17.98
         17.98  17.98  17.98  18.41  18.41  19.24  19.57  19.77  19.78  20.50
         20.95  21.40  21.40  21.41  21.41  22.17  31.22  32.79  32.79  32.82
         32.82  33.56  33.61  34.79  35.69  67.87  67.87  68.30  68.30  68.37
         68.38 116.27 131.92 132.29
  29  1 -17.00 -13.82 -13.08 -13.08 -13.08 -13.08 -12.32  -8.29  -8.29  -8.29
         -8.29  -8.14  -8.13  -5.68  -5.56  -5.55  -4.65  -4.29  -4.29  -4.28
         -4.28  -4.26  -2.93  -2.60  -2.60  -1.92   2.25   2.62   3.83   3.83
          3.95   3.96   3.96   3.96   4.55   5.58   5.58   5.59   5.59   6.40
          6.59   6.59   6.67   6.80   6.81   7.18   7.44   7.44   7.45   7.45
          7.83   8.40   8.40   8.41   8.41   8.86  14.65  14.65  14.90  14.90
         14.91  14.91  15.46  16.98  17.00  17.00  17.01  17.01  17.15  17.94
         17.94  17.95  17.95  18.83  18.83  18.99  19.41  19.54  19.55  20.82
         20.95  21.42  21.42  21.43  21.43  22.62  30.57  32.53  32.58  32.87
         32.87  32.90  32.90  35.98  37.31  67.57  67.57  68.55  68.55  68.62
         68.62  98.76 118.88 119.15
  30  1 -16.97 -14.04 -13.08 -13.07 -13.07 -13.07 -12.05  -8.37  -8.37  -8.37
         -8.37  -8.11  -8.10  -5.89  -5.68  -5.67  -4.67  -4.15  -4.12  -4.12
         -4.11  -4.11  -3.00  -2.44  -2.44  -1.74   2.04   2.66   3.56   3.56
          3.68   3.68   3.69   3.69   4.37   5.43   5.43   5.44   5.44   6.09
          6.35   6.84   6.84   6.87   6.88   7.45   7.47   7.47   7.47   7.48
          7.96   8.85   8.85   8.86   8.86   9.28  14.26  14.26  14.67  14.67
         14.68  14.68  15.09  17.20  17.26  17.26  17.27  17.27  17.46  17.88
         17.88  17.89  17.89  18.75  19.19  19.22  19.22  19.30  19.30  21.12
         21.13  21.45  21.45  21.46  21.46  23.10  30.00  31.36  31.40  33.09
         33.10  33.13  33.13  37.33  39.92  67.21  67.21  68.93  68.93  68.99
[...]
         10.58  11.00  11.10  11.34  11.45  11.78  12.10  12.40  13.03  13.31
         14.03  14.20  14.47  14.51  14.68  15.53  15.88  16.16  16.39  17.03
         17.64  17.76  18.61  18.81  19.43  20.62  21.71  22.25  22.67  23.11
         23.27  23.59  24.57  24.95  26.10  26.34  31.61  36.07  37.45  39.53
         41.41  50.06  51.93  53.48  55.23  64.16  64.40  64.45  66.78  70.86
         76.10  86.76  93.97  95.31
  93  1 -16.06 -15.41 -14.29 -13.95 -12.12 -11.75 -10.35  -9.48  -9.35  -9.18
         -8.18  -7.94  -7.75  -7.50  -7.26  -6.37  -3.21  -3.17  -2.76  -2.11
         -2.00  -1.60  -1.58  -0.84  -0.83  -0.63  -0.37  -0.28   0.61   0.68
          1.26   2.04   2.08   2.08   2.71   3.55   4.03   4.03   4.66   5.68
          5.81   5.84   7.71   7.84   8.34   8.47   9.03   9.40   9.50  10.24
         10.58  11.01  11.11  11.35  11.46  11.78  12.10  12.40  13.04  13.33
         14.04  14.21  14.47  14.50  14.68  15.51  15.86  16.16  16.40  17.03
         17.64  17.75  18.61  18.80  19.42  20.62  21.71  22.26  22.67  23.11
         23.27  23.60  24.57  24.94  26.10  26.32  31.58  36.05  37.44  39.56
         41.37  50.10  51.98  53.53  55.23  64.12  64.38  64.45  66.74  70.86
         76.04  86.75  93.93  95.33
  94  1 -15.86 -15.24 -14.36 -14.36 -12.01 -12.01 -10.99 -10.19  -8.77  -8.77
         -7.78  -7.48  -7.48  -7.19  -6.69  -6.67  -3.32  -3.19  -2.96  -2.96
         -2.08  -1.42  -1.42  -1.28  -1.21  -0.47  -0.24   0.48   0.48   0.69
          0.94   0.94   2.90   2.90   3.29   3.41   4.99   5.11   5.15   5.48
          5.50   5.50   6.50   6.50   7.29   8.32   8.93   9.16   9.16   9.21
          9.48   9.48  11.10  11.42  11.42  11.83  13.15  13.36  13.50  13.50
         13.56  14.58  15.00  15.00  16.07  16.07  16.33  16.44  17.20  17.36
         17.36  17.92  17.92  19.12  19.23  19.23  20.72  21.87  21.98  23.66
         24.45  24.45  25.11  26.99  27.54  27.54  31.80  32.72  35.20  35.20
         41.03  48.88  54.49  54.49  57.61  59.60  63.52  65.46  65.46  68.17
         83.91  87.87  87.87  94.11
  95  1 -15.47 -14.94 -14.94 -14.59 -12.03 -11.64 -11.64 -11.01  -8.32  -7.91
         -7.91  -7.22  -6.97  -6.92  -6.92  -6.39  -3.32  -3.19  -2.86  -2.86
         -2.08  -2.08  -1.77  -1.72  -1.31  -0.94  -0.82  -0.82   1.44   1.45
          2.19   2.41   2.60   3.23   3.59   4.05   4.05   4.42   4.42   4.77
          5.22   7.04   7.04   7.17   7.17   7.82   8.12   8.63   8.93   8.93
          8.98   9.33   9.37  10.09  10.54  10.54  13.85  14.08  14.08  15.07
         15.07  15.12  15.48  15.63  15.78  15.99  16.41  16.41  17.59  18.35
         18.35  18.38  18.92  18.92  19.35  19.65  20.45  20.45  21.09  21.53
         26.82  26.94  26.94  28.33  28.61  32.14  32.14  34.21  38.69  39.63
         39.63  45.83  54.78  54.79  58.37  59.07  60.72  73.09  73.09  78.35
         84.28  84.29  84.85 104.48
  96  1 -15.47 -14.94 -14.93 -14.59 -12.03 -11.64 -11.63 -11.01  -8.32  -7.92
         -7.91  -7.22  -6.96  -6.93  -6.92  -6.38  -3.31  -3.18  -2.87  -2.86
         -2.09  -2.08  -1.77  -1.71  -1.31  -0.94  -0.83  -0.82   1.43   1.44
          2.19   2.41   2.59   3.24   3.60   4.05   4.06   4.42   4.43   4.77
          5.22   7.04   7.05   7.18   7.18   7.82   8.11   8.64   8.93   8.93
          8.98   9.32   9.35  10.09  10.53  10.54  13.84  14.09  14.09  15.06
         15.08  15.11  15.47  15.61  15.78  15.99  16.42  16.44  17.59  18.33
         18.35  18.39  18.92  18.92  19.35  19.66  20.45  20.46  21.09  21.52
         26.83  26.92  26.95  28.35  28.60  32.14  32.15  34.21  38.72  39.61
         39.66  45.84  54.67  54.81  58.42  59.09  60.81  73.13  73.14  78.33
         84.29  84.32  84.83 104.91
  97  1 -15.47 -14.94 -14.94 -14.59 -12.02 -11.64 -11.64 -11.01  -8.32  -7.91
         -7.91  -7.21  -6.97  -6.92  -6.92  -6.39  -3.31  -3.19  -2.86  -2.86
         -2.08  -2.08  -1.77  -1.72  -1.31  -0.94  -0.83  -0.83   1.43   1.43
          2.19   2.41   2.60   3.24   3.60   4.05   4.06   4.42   4.42   4.78
          5.23   7.04   7.05   7.17   7.17   7.82   8.12   8.64   8.94   8.94
          8.98   9.32   9.36  10.08  10.53  10.53  13.84  14.08  14.08  15.06
         15.06  15.12  15.47  15.63  15.78  15.99  16.43  16.43  17.60  18.35
         18.35  18.39  18.92  18.92  19.35  19.65  20.45  20.45  21.09  21.52
         26.82  26.95  26.95  28.36  28.58  32.16  32.16  34.22  38.69  39.66
         39.66  45.81  54.83  54.84  58.40  59.06  60.77  73.12  73.12  78.39
         84.35  84.35  84.82 104.75
  98  1 -15.64 -15.04 -15.04 -14.53 -11.62 -11.01 -11.01 -10.22  -9.28  -8.80
         -8.80  -8.21  -7.09  -7.01  -7.01  -6.32  -3.30  -2.69  -2.42  -2.42
         -1.73  -1.73  -1.40  -1.17  -0.11  -0.11  -0.09   0.08   0.44   0.44
          0.70   1.23   1.73   2.15   2.48   2.74   2.74   4.24   4.24   5.37
          5.76   7.64   7.64   8.17   8.73   8.73   9.37   9.67   9.89  10.01
         10.01  10.69  11.09  11.71  11.71  12.02  12.71  12.86  12.86  12.88
         13.46  13.75  13.75  14.41  14.89  15.12  15.12  15.53  17.39  18.16
         18.16  19.19  19.79  19.92  19.92  20.40  21.50  21.50  21.74  22.29
         25.56  25.56  25.96  25.96  27.59  35.94  35.94  40.30  42.66  42.66
         48.69  52.01  52.01  53.16  57.90  59.57  60.60  68.71  68.72  78.50
         79.03  81.15  81.15  97.24
  99  1 -15.64 -15.04 -15.04 -14.53 -11.63 -11.01 -11.01 -10.21  -9.27  -8.80
         -8.80  -8.21  -7.09  -7.01  -7.01  -6.32  -3.30  -2.69  -2.42  -2.42
         -1.74  -1.74  -1.40  -1.17  -0.10  -0.10  -0.09   0.08   0.45   0.45
          0.71   1.24   1.72   2.15   2.48   2.73   2.73   4.24   4.24   5.37
          5.76   7.64   7.64   8.17   8.73   8.73   9.37   9.68   9.90  10.00
         10.00  10.68  11.08  11.72  11.72  12.03  12.72  12.87  12.87  12.88
         13.47  13.76  13.76  14.40  14.89  15.10  15.11  15.53  17.39  18.16
         18.16  19.18  19.79  19.92  19.92  20.40  21.49  21.49  21.74  22.30
         25.56  25.57  25.96  25.96  27.57  35.94  35.94  40.29  42.62  42.62
         48.67  52.05  52.05  53.13  57.87  59.52  60.66  68.63  68.63  78.52
         79.01  81.12  81.12  97.27
 100  1 -15.47 -14.94 -14.94 -14.59 -12.03 -11.64 -11.64 -11.01  -8.32  -7.91
         -7.91  -7.22  -6.97  -6.92  -6.92  -6.39  -3.32  -3.19  -2.86  -2.86
         -2.08  -2.08  -1.77  -1.72  -1.31  -0.94  -0.82  -0.82   1.44   1.45
          2.19   2.41   2.60   3.23   3.59   4.05   4.05   4.42   4.42   4.77
          5.22   7.04   7.04   7.17   7.17   7.82   8.12   8.63   8.93   8.93
          8.98   9.33   9.37  10.09  10.54  10.54  13.85  14.08  14.08  15.07
         15.07  15.12  15.48  15.63  15.78  15.99  16.41  16.41  17.59  18.35
         18.35  18.38  18.92  18.92  19.35  19.65  20.45  20.45  21.09  21.53
         26.82  26.94  26.94  28.33  28.61  32.14  32.14  34.21  38.69  39.63
         39.63  45.83  54.78  54.79  58.37  59.07  60.72  73.09  73.09  78.35
         84.28  84.29  84.85 104.48
 101  1 -15.16 -14.82 -14.82 -14.82 -12.11 -12.11 -12.11 -11.72  -7.16  -7.16
         -7.16  -6.76  -6.76  -6.76  -6.54  -6.54  -3.94  -3.46  -3.46  -3.46
         -2.01  -2.01  -2.01  -1.90  -1.90  -1.60  -1.60  -1.60   2.94   2.94
          2.94   3.38   4.15   4.15   4.29   4.29   4.29   5.28   5.45   5.45
          5.45   6.24   6.24   6.24   6.31   6.31   6.31   7.74   7.74   8.02
          8.02   8.02   8.73   8.73   8.73   8.84  15.87  15.93  15.93  15.94
         16.42  16.42  16.63  16.63  16.63  17.23  17.23  17.23  18.00  18.00
         18.00  18.97  18.97  18.97  19.39  19.39  19.39  19.94  19.94  21.10
         27.94  27.94  27.94  29.28  29.28  29.62  29.62  29.62  49.01  49.01
         49.02  53.83  62.67  62.68  62.68  67.19  67.19  67.20  77.60  77.60
         92.39  92.39  92.39  98.26
 102  1 -15.16 -14.83 -14.82 -14.81 -12.11 -12.11 -12.10 -11.72  -7.17  -7.16
         -7.16  -6.76  -6.76  -6.75  -6.54  -6.54  -3.94  -3.47  -3.46  -3.46
         -2.01  -2.01  -2.01  -1.90  -1.89  -1.61  -1.61  -1.60   2.92   2.93
          2.94   3.39   4.14   4.15   4.28   4.29   4.30   5.27   5.45   5.45
          5.46   6.24   6.24   6.25   6.32   6.32   6.33   7.73   7.74   8.01
          8.02   8.03   8.72   8.72   8.73   8.84  15.86  15.93  15.93  15.94
         16.41  16.42  16.62  16.62  16.63  17.24  17.25  17.25  18.00  18.00
         18.01  18.96  18.96  18.96  19.38  19.40  19.41  19.94  19.95  21.09
         27.93  27.95  27.95  29.29  29.29  29.60  29.62  29.62  48.95  49.05
         49.06  53.83  62.56  62.76  62.79  67.11  67.14  67.21  77.82  78.00
         92.33  92.41  92.49  98.36
 103  1 -15.47 -14.94 -14.93 -14.59 -12.03 -11.64 -11.63 -11.01  -8.32  -7.92
         -7.91  -7.22  -6.96  -6.93  -6.92  -6.38  -3.31  -3.18  -2.87  -2.86
         -2.09  -2.08  -1.77  -1.71  -1.31  -0.94  -0.83  -0.82   1.43   1.44
          2.19   2.41   2.59   3.24   3.60   4.05   4.06   4.42   4.43   4.77
          5.22   7.04   7.05   7.18   7.18   7.82   8.11   8.64   8.93   8.93
          8.98   9.32   9.35  10.09  10.53  10.54  13.84  14.09  14.09  15.06
         15.08  15.11  15.47  15.61  15.78  15.99  16.42  16.44  17.59  18.33
         18.35  18.39  18.92  18.92  19.35  19.66  20.45  20.46  21.09  21.52
         26.83  26.92  26.95  28.35  28.60  32.14  32.15  34.21  38.72  39.61
         39.66  45.84  54.67  54.81  58.42  59.09  60.81  73.13  73.14  78.33
         84.29  84.32  84.83 104.91
 104  1 -15.64 -15.04 -15.03 -14.53 -11.63 -11.01 -11.01 -10.22  -9.28  -8.80
         -8.79  -8.21  -7.08  -7.02  -7.01  -6.32  -3.30  -2.68  -2.44  -2.42
         -1.74  -1.73  -1.40  -1.16  -0.11  -0.10  -0.09   0.08   0.44   0.44
          0.71   1.24   1.73   2.15   2.47   2.73   2.74   4.25   4.25   5.36
          5.75   7.65   7.65   8.18   8.72   8.73   9.36   9.68   9.89  10.00
         10.01  10.68  11.09  11.71  11.72  12.02  12.71  12.86  12.87  12.88
         13.46  13.75  13.77  14.39  14.89  15.11  15.14  15.52  17.38  18.13
         18.16  19.20  19.80  19.92  19.93  20.40  21.49  21.50  21.75  22.30
         25.57  25.58  25.94  25.96  27.59  35.92  35.95  40.32  42.61  42.65
         48.75  51.94  51.99  53.11  57.96  59.53  60.60  68.67  68.75  78.50
         78.99  81.14  81.20  97.24
 105  1 -15.64 -15.04 -15.03 -14.53 -11.63 -11.01 -11.01 -10.22  -9.28  -8.80
         -8.79  -8.21  -7.08  -7.02  -7.01  -6.32  -3.30  -2.68  -2.44  -2.42
         -1.74  -1.73  -1.40  -1.16  -0.11  -0.10  -0.09   0.08   0.44   0.44
          0.71   1.24   1.73   2.15   2.47   2.73   2.74   4.25   4.25   5.36
          5.75   7.65   7.65   8.18   8.72   8.73   9.36   9.68   9.89  10.00
         10.01  10.68  11.09  11.71  11.72  12.02  12.71  12.86  12.87  12.88
         13.46  13.75  13.77  14.39  14.89  15.11  15.14  15.52  17.38  18.13
         18.16  19.20  19.80  19.92  19.93  20.40  21.49  21.50  21.75  22.30
         25.57  25.58  25.94  25.96  27.59  35.92  35.95  40.32  42.61  42.65
         48.75  51.94  51.99  53.11  57.96  59.53  60.60  68.67  68.75  78.50
         78.99  81.14  81.20  97.24
 106  1 -15.47 -14.94 -14.93 -14.59 -12.03 -11.64 -11.63 -11.01  -8.32  -7.92
         -7.91  -7.22  -6.96  -6.93  -6.92  -6.38  -3.31  -3.18  -2.87  -2.86
         -2.09  -2.08  -1.77  -1.71  -1.31  -0.94  -0.83  -0.82   1.43   1.44
          2.19   2.41   2.59   3.24   3.60   4.05   4.06   4.42   4.43   4.77
          5.22   7.04   7.05   7.18   7.18   7.82   8.11   8.64   8.93   8.93
          8.98   9.32   9.35  10.09  10.53  10.54  13.84  14.09  14.09  15.06
         15.08  15.11  15.47  15.61  15.78  15.99  16.42  16.44  17.59  18.33
         18.35  18.39  18.92  18.92  19.35  19.66  20.45  20.46  21.09  21.52
         26.83  26.92  26.95  28.35  28.60  32.14  32.15  34.21  38.72  39.61
         39.66  45.84  54.67  54.81  58.42  59.09  60.81  73.13  73.14  78.33
         84.29  84.32  84.83 104.91
 107  1 -15.16 -14.83 -14.82 -14.81 -12.11 -12.11 -12.10 -11.72  -7.17  -7.16
         -7.16  -6.76  -6.76  -6.75  -6.54  -6.54  -3.94  -3.47  -3.46  -3.46
         -2.01  -2.01  -2.01  -1.90  -1.89  -1.61  -1.61  -1.60   2.92   2.93
          2.94   3.39   4.14   4.15   4.28   4.29   4.30   5.27   5.45   5.45
          5.46   6.24   6.24   6.25   6.32   6.32   6.33   7.73   7.74   8.01
          8.02   8.03   8.72   8.72   8.73   8.84  15.86  15.93  15.93  15.94
         16.41  16.42  16.62  16.62  16.63  17.24  17.25  17.25  18.00  18.00
         18.01  18.96  18.96  18.96  19.38  19.40  19.41  19.94  19.95  21.09
         27.93  27.95  27.95  29.29  29.29  29.60  29.62  29.62  48.95  49.05
         49.06  53.83  62.56  62.76  62.79  67.11  67.14  67.21  77.82  78.00
         92.33  92.41  92.49  98.36
 108  1 -15.16 -14.83 -14.82 -14.81 -12.11 -12.11 -12.10 -11.72  -7.17  -7.16
         -7.16  -6.76  -6.76  -6.75  -6.54  -6.54  -3.94  -3.47  -3.46  -3.46
         -2.01  -2.01  -2.01  -1.90  -1.89  -1.61  -1.61  -1.60   2.92   2.93
          2.94   3.39   4.14   4.15   4.28   4.29   4.30   5.27   5.45   5.45
          5.46   6.24   6.24   6.25   6.32   6.32   6.33   7.73   7.74   8.01
          8.02   8.03   8.72   8.72   8.73   8.84  15.86  15.93  15.93  15.94
         16.41  16.42  16.62  16.62  16.63  17.24  17.25  17.25  18.00  18.00
         18.01  18.96  18.96  18.96  19.38  19.40  19.41  19.94  19.95  21.09
         27.93  27.95  27.95  29.29  29.29  29.60  29.62  29.62  48.95  49.05
         49.06  53.83  62.56  62.76  62.79  67.11  67.14  67.21  77.82  78.00
         92.33  92.41  92.49  98.36
siesta: Fermi energy =      -4.989604 eV

siesta: Program's energy decomposition (eV):
siesta: Ebs     =      -331.578589
siesta: Eions   =      1510.441798
siesta: Ena     =       471.364434
siesta: Ekin    =       319.204854
siesta: Enl     =       127.071029
siesta: DEna    =         6.621494
siesta: DUscf   =         1.519194
siesta: DUext   =         0.000000
siesta: Exc     =      -445.998084
siesta: eta*DQ  =         0.000000
siesta: Emadel  =         0.000000
siesta: Emeta   =         0.000000
siesta: Emolmec =         0.000000
siesta: Ekinion =         0.000000
siesta: Eharris =     -1030.659262
siesta: Etot    =     -1030.658878
siesta: FreeEng =     -1030.658878

siesta: Final energy (eV):
siesta:  Band Struct. =    -331.578589
siesta:       Kinetic =     319.204854
siesta:       Hartree =      59.955179
siesta:    Ext. field =       0.000000
siesta:   Exch.-corr. =    -445.998084
siesta:  Ion-electron =    -421.873880
siesta:       Ion-ion =    -541.946946
siesta:       Ekinion =       0.000000
siesta:         Total =   -1030.658878

siesta: Stress tensor (static) (eV/Ang**3):
siesta:     0.000682   -0.000053   -0.000052
siesta:    -0.000053    0.000682   -0.000052
siesta:    -0.000052   -0.000052    0.000683

siesta: Constrained stress tensor (static) (eV/Ang**3):
siesta:     0.000682   -0.000053   -0.000052
siesta:    -0.000053    0.000682   -0.000052
siesta:    -0.000052   -0.000052    0.000683

siesta: Cell volume =        168.246432 Ang**3

siesta: Pressure (static):
siesta:                Solid            Molecule  Units
siesta:          -0.00000743         -0.00001717  Ry/Bohr**3
siesta:          -0.00068247         -0.00157649  eV/Ang**3
siesta:          -1.09344949         -2.52584437  kBar
(Free)E+ p_basis*V_orbitals  =       -1021.721148
(Free)Eharris+ p_basis*V_orbitals  =       -1021.721676

* Maximum dynamic memory allocated : Node    0 =   142 MB

* Maximum memory occured during init_pulay_arrrays            

timer: CPU execution times:
timer:  Routine       Calls   Time/call    Tot.time        %
timer:  siesta            1    1089.303    1089.303   100.00
timer:  Setup             1       0.170       0.170     0.02
timer:  bands             3       0.507       1.521     0.14
timer:  writewave         3       0.010       0.030     0.00
timer:  KSV_init          1       0.000       0.000     0.00
timer:  IterMD            8     135.939    1087.512    99.84
timer:  hsparse           8       0.197       1.577     0.14
timer:  overlap           8       0.139       1.111     0.10
timer:  IterSCF          37      22.522     833.296    76.50
timer:  kinefsm          16       0.133       2.132     0.20
timer:  nlefsm           16       3.486      55.770     5.12
timer:  DHSCF            45      17.701     796.546    73.12
timer:  DHSCF1            8       0.115       0.921     0.08
timer:  DHSCF2            8       7.743      61.947     5.69
timer:  REORD           286       0.000       0.104     0.01
timer:  POISON           53       0.012       0.648     0.06
timer:  DHSCF3           45      13.833     622.497    57.15
timer:  rhoofd           45       6.781     305.140    28.01
timer:  cellXC           45       0.439      19.774     1.82
timer:  vmat             45       6.594     296.708    27.24
timer:  MolMec           16       0.000       0.000     0.00
timer:  diagon           37       6.141     227.202    20.86
timer:  c-eigval       4097       0.015      62.038     5.70
timer:  c-buildHS      4097       0.009      37.273     3.42
timer:  cdiag          8094       0.009      71.784     6.59
timer:  cdiag1         8094       0.001       6.711     0.62
timer:  cdiag2         8094       0.002      19.585     1.80
timer:  cdiag3         8094       0.005      44.104     4.05
timer:  cdiag4         8094       0.000       0.954     0.09
timer:  c-eigvec       3997       0.021      83.694     7.68
timer:  c-buildD       3996       0.021      82.742     7.60
timer:  DHSCF4            8      13.893     111.145    10.20
timer:  dfscf             8      11.949      95.592     8.78
timer:  overfsm           8       0.120       0.957     0.09
timer:  optical           1       0.001       0.001     0.00
  

elaps: ELAPSED times:
elaps:  Routine       Calls   Time/call    Tot.time        %
elaps:  siesta            1    1089.731    1089.731   100.00
elaps:  Setup             1       0.180       0.180     0.02
elaps:  bands             3       0.507       1.521     0.14
elaps:  writewave         3       0.010       0.031     0.00
elaps:  KSV_init          1       0.000       0.000     0.00
elaps:  IterMD            8     135.982    1087.857    99.83
elaps:  hsparse           8       0.197       1.578     0.14
elaps:  overlap           8       0.139       1.111     0.10
elaps:  IterSCF          37      22.527     833.517    76.49
elaps:  kinefsm          16       0.133       2.133     0.20
elaps:  nlefsm           16       3.486      55.779     5.12
elaps:  DHSCF            45      17.703     796.628    73.10
elaps:  DHSCF1            8       0.115       0.921     0.08
elaps:  DHSCF2            8       7.744      61.954     5.69
elaps:  REORD           286       0.000       0.104     0.01
elaps:  POISON           53       0.012       0.649     0.06
elaps:  DHSCF3           45      13.835     622.562    57.13
elaps:  rhoofd           45       6.782     305.174    28.00
elaps:  cellXC           45       0.439      19.776     1.81
elaps:  vmat             45       6.594     296.737    27.23
elaps:  MolMec           16       0.000       0.000     0.00
elaps:  diagon           37       6.141     227.229    20.85
elaps:  c-eigval       4097       0.015      62.044     5.69
elaps:  c-buildHS      4097       0.009      37.312     3.42
elaps:  cdiag          8094       0.009      71.760     6.59
elaps:  cdiag1         8094       0.001       6.720     0.62
elaps:  cdiag2         8094       0.002      19.601     1.80
elaps:  cdiag3         8094       0.005      44.118     4.05
elaps:  cdiag4         8094       0.000       0.955     0.09
elaps:  c-eigvec       3997       0.021      83.704     7.68
elaps:  c-buildD       3996       0.021      82.788     7.60
elaps:  DHSCF4            8      13.894     111.156    10.20
elaps:  dfscf             8      11.950      95.601     8.77
elaps:  overfsm           8       0.120       0.957     0.09
elaps:  optical           1       0.001       0.001     0.00
  
>> End of run:  13-MAY-2013  10:38:46
