Siesta Version:                                        siesta-3.2
Architecture  : i686-apple-darwin10.8.0--unknown
Compiler flags: g95 -g -O2
SERIAL version

* Running in serial mode
>> Start of run:  13-MAY-2013  10:53:31

                           ***********************       
                           *  WELCOME TO SIESTA  *       
                           ***********************       

reinit: Reading from standard input
************************** Dump of input data file ****************************
# FDF for silicon
SystemName             silicon          # Descriptive name of the system
SystemLabel            si          # Short name for naming files
NumberOfAtoms 8
NumberOfSpecies 1
%block ChemicalSpeciesLabel
1 14 Si
%endblock ChemicalSpeciesLabel
LatticeConstant  5.43 Ang
##Basis set Definition##
PAO.BasisType          split        # Type of PAO basis set
PAO.EnergyShift        50 meV
PAO.BasisSize          DZP          # (DZP) Double-z + polarization
#%block LatticeVectors
#0.500 0.500 0.000
#0.500 0.000 0.500
#0.000 0.500 0.500
#%endblock LatticeVectors
AtomicCoordinatesFormat NotScaledCartesianAng
%block AtomicCoordinatesAndAtomicSpecies
	0.00000000	0.00000000	0.00000000  1 Si  1
	1.36000000	1.36000000	1.36000000  1 Si  2
	2.72000000	2.72000000	0.00000000  1 Si  3
	4.08000000	4.08000000	1.36000000  1 Si  4
	2.72000000	0.00000000	2.72000000  1 Si  5
	4.08000000	1.36000000	4.08000000  1 Si  6
	0.00000000	2.72000000	2.72000000  1 Si  7
	1.36000000	4.08000000	4.08000000  1 Si  8
%endblock AtomicCoordinatesAndAtomicSpecies
MeshCutoff 260.0 Ry # 100, 120, 180, 260
kgrid_cutoff 30.0 Bohr # 30, 35, 40, 45
DM.Mixingweight  0.3
DM.NumberPulay    3
DM.Tolerance      1.d-3
DM.UseSaveDM      true
ElectronicTemperature 25 meV
SolutionMethod    diagon
XC.functional      GGA	    # Generalized Gradient Approximation
XC.authors        PBE          # Perdew-Burke-Ernzerhof
SpinPolarized     false
MD.TypeOfRun           CG           # Type of dynamics:
MD.VariableCell        true
MD.NumCGsteps          100          # Number of CG steps for coordinate optimization
MD.MaxCGDispl          0.2 Bohr     # Maximum atomic displacement
                                    #   in one CG step (Bohr)
MD.MaxForceTol         0.04 eV/Ang  # Tolerance in the maximum
                                    #   atomic force (Ry/Bohr)
				
##Output Specification##
WriteMDhistory         true         # Trajectory information
WriteCoorStep          true
WriteCoorXmol          true
WriteMDXmol            true
WriteEigenvalues true
WriteKbands      true
WriteBands       true
WriteWaveFunctions true
WriteMullikenPoP   1
%block BandLines
1	1.000	1.000 1.000 L
25	0.000	0.000	0.000 \Gamma
30	2.000	0.000	0.000 X
10	2.000	0.500	0.500 U
35	0.000	0.000	0.000 \Gamma
%endblock BandLines
%block WaveFuncKPoints
0.0 0.0 0.0 from 1 to 50 # > 16 = 4/2*8 (Valenzelektronen/2, Atomzahl ...)
%endblock WaveFuncKpoints
************************** End of input data file *****************************

reinit: -----------------------------------------------------------------------
reinit: System Name: silicon
reinit: -----------------------------------------------------------------------
reinit: System Label: si                                                          
reinit: -----------------------------------------------------------------------

initatom: Reading input for the pseudopotentials and atomic orbitals ----------
 Species number:  1  Label: Si Atomic number: 14
Ground state valence configuration:   3s02  3p02
Reading pseudopotential information in formatted form from Si.psf

Valence configuration for pseudopotential generation:
3s( 2.00) rc: 1.75
3p( 2.00) rc: 1.94
3d( 0.00) rc: 2.09
4f( 0.00) rc: 2.09
For Si, standard SIESTA heuristics set lmxkb to 3
 (one more than the basis l, including polarization orbitals).
Use PS.lmax or PS.KBprojectors blocks to override.

<basis_specs>
===============================================================================
Si                   Z=  14    Mass=  28.090        Charge= 0.17977+309
Lmxo=1 Lmxkb= 3    BasisType=split      Semic=F
L=0  Nsemic=0  Cnfigmx=3
          n=1  nzeta=2  polorb=0
            splnorm:   0.15000    
               vcte:    0.0000    
               rinn:    0.0000    
                rcs:    0.0000      0.0000    
            lambdas:    1.0000      1.0000    
L=1  Nsemic=0  Cnfigmx=3
          n=1  nzeta=2  polorb=1
            splnorm:   0.15000    
               vcte:    0.0000    
               rinn:    0.0000    
                rcs:    0.0000      0.0000    
            lambdas:    1.0000      1.0000    
-------------------------------------------------------------------------------
L=0  Nkbl=1  erefs: 0.17977+309
L=1  Nkbl=1  erefs: 0.17977+309
L=2  Nkbl=1  erefs: 0.17977+309
L=3  Nkbl=1  erefs: 0.17977+309
===============================================================================
</basis_specs>

atom: Called for Si                    (Z =  14)

read_vps: Pseudopotential generation method:
read_vps: ATM3      Troullier-Martins                       
Total valence charge:    4.00000

read_vps: Pseudopotential includes a core correction:
read_vps: Pseudo-core for xc-correction

xc_check: Exchange-correlation functional:
xc_check: GGA Perdew, Burke & Ernzerhof 1996
V l=0 = -2*Zval/r beyond r=  2.0104
V l=1 = -2*Zval/r beyond r=  2.0873
V l=2 = -2*Zval/r beyond r=  2.1670
V l=3 = -2*Zval/r beyond r=  2.1670
All V_l potentials equal beyond r=  2.0613
This should be close to max(r_c) in ps generation
All pots = -2*Zval/r beyond r=  2.1670

VLOCAL1: 99.0% of the norm of Vloc inside     10.216 Ry
VLOCAL1: 99.9% of the norm of Vloc inside     23.282 Ry
atom: Maximum radius for 4*pi*r*r*local-pseudopot. charge    2.45560
atom: Maximum radius for r*vlocal+2*Zval:    2.14012
GHOST: No ghost state for L =  0
GHOST: No ghost state for L =  1
GHOST: No ghost state for L =  2
GHOST: No ghost state for L =  3

KBgen: Kleinman-Bylander projectors: 
   l= 0   rc=  2.306811   el= -0.791441   Ekb=  5.289775   kbcos=  0.291595
   l= 1   rc=  2.394965   el= -0.300632   Ekb=  1.944256   kbcos=  0.287657
   l= 2   rc=  2.549439   el=  0.001958   Ekb= -1.788485   kbcos= -0.056492
   l= 3   rc=  2.782581   el=  0.003046   Ekb= -0.472620   kbcos= -0.006203

KBgen: Total number of  Kleinman-Bylander projectors:   16
atom: -------------------------------------------------------------------------

atom: SANKEY-TYPE ORBITALS:
atom: Selected multiple-zeta basis: split     

SPLIT: Orbitals with angular momentum L= 0

SPLIT: Basis orbitals for state 3s

SPLIT: PAO cut-off radius determined from an
SPLIT: energy shift=  0.003675 Ry

   izeta = 1
                 lambda =    1.000000
                     rc =    6.116033
                 energy =   -0.788343
                kinetic =    0.528041
    potential(screened) =   -1.316383
       potential(ionic) =   -3.704743

   izeta = 2
                 rmatch =    4.530823
              splitnorm =    0.150000
                 energy =   -0.692892
                kinetic =    0.848665
    potential(screened) =   -1.541557
       potential(ionic) =   -4.044985

SPLIT: Orbitals with angular momentum L= 1

SPLIT: Basis orbitals for state 3p

SPLIT: PAO cut-off radius determined from an
SPLIT: energy shift=  0.003675 Ry

   izeta = 1
                 lambda =    1.000000
                     rc =    7.853192
                 energy =   -0.297152
                kinetic =    0.797948
    potential(screened) =   -1.095101
       potential(ionic) =   -3.275753

   izeta = 2
                 rmatch =    5.330310
              splitnorm =    0.150000
                 energy =   -0.228170
                kinetic =    1.148579
    potential(screened) =   -1.376749
       potential(ionic) =   -3.739005

POLgen: Perturbative polarization orbital with L=  2

POLgen: Polarization orbital for state 3p

   izeta = 1
                     rc =    7.853192
                 energy =    0.340222
                kinetic =    1.096718
    potential(screened) =   -0.756496
       potential(ionic) =   -2.716423
atom: Total number of Sankey-type orbitals: 13

atm_pop: Valence configuration (for local Pseudopot. screening):
 3s( 2.00)                                                            
 3p( 2.00)                                                            
Vna: chval, zval:    4.00000   4.00000

Vna:  Cut-off radius for the neutral-atom potential:   7.853192
comcore: Pseudo-core radius Rcore=  2.999314

atom: _________________________________________________________________________

prinput: Basis input ----------------------------------------------------------

PAO.BasisType split     

%block ChemicalSpeciesLabel
    1   14 Si                      # Species index, atomic number, species label
%endblock ChemicalSpeciesLabel

%block PAO.Basis                 # Define Basis set
Si                    2                    # Species label, number of l-shells
 n=3   0   2                         # n, l, Nzeta 
   6.116      4.531   
   1.000      1.000   
 n=3   1   2 P   1                   # n, l, Nzeta, Polarization, NzetaPol
   7.853      5.330   
   1.000      1.000   
%endblock PAO.Basis

prinput: ----------------------------------------------------------------------

coor:   Atomic-coordinates input format  =     Cartesian coordinates
coor:                                          (in Angstroms)

siesta: Atomic coordinates (Bohr) and species
siesta:      0.00000   0.00000   0.00000  1        1
siesta:      2.57003   2.57003   2.57003  1        2
siesta:      5.14006   5.14006   0.00000  1        3
siesta:      7.71009   7.71009   2.57003  1        4
siesta:      5.14006   0.00000   5.14006  1        5
siesta:      7.71009   2.57003   7.71009  1        6
siesta:      0.00000   5.14006   5.14006  1        7
siesta:      2.57003   7.71009   7.71009  1        8

siesta: System type = bulk      

initatomlists: Number of atoms, orbitals, and projectors:      8   104   128

siesta: ******************** Simulation parameters ****************************
siesta:
siesta: The following are some of the parameters of the simulation.
siesta: A complete list of the parameters used, including default values,
siesta: can be found in file out.fdf
siesta:
redata: Non-Collinear-spin run           =     F
redata: SpinPolarized (Up/Down) run      =     F
redata: Number of spin components        =     1
redata: Long output                      =     F
redata: Number of Atomic Species         =        1
redata: Charge density info will appear in .RHO file
redata: Write Mulliken Pop.              =     Atomic and Orbital charges
redata: Mesh Cutoff                      =   260.0000  Ry
redata: Net charge of the system         =     0.0000 |e|
redata: Max. number of SCF Iter          =       50
redata: Performing Pulay mixing using    =     3 iterations
redata: Mix DM in first SCF step ?       =     F
redata: Write Pulay info on disk?        =     F
redata: Discard 1st Pulay DM after  kick =     F
redata: New DM Mixing Weight             =     0.3000
redata: New DM Occupancy tolerance       = 0.000000000001
redata: No kicks to SCF
redata: DM Mixing Weight for Kicks       =     0.5000
redata: DM Tolerance for SCF             =     0.001000
redata: Require Energy convergence for SCF =     F
redata: DM Energy tolerance for SCF      =     0.000100 eV
redata: Require Harris convergence for SCF =     F
redata: DM Harris energy tolerance for SCF =     0.000100 eV
redata: Using Saved Data (generic)   =     F
redata: Use continuation files for DM    =     T
redata: Neglect nonoverlap interactions  =     F
redata: Method of Calculation            =     Diagonalization
redata: Divide and Conquer               =     T
redata: Electronic Temperature           =     0.0018  Ry
redata: Fix the spin of the system       =     F
redata: Dynamics option                  =     CG coord. optimization
redata: Variable cell                    =     T
redata: Use continuation files for CG    =     F
redata: Max atomic displ per move        =     0.2000  Bohr
redata: Maximum number of CG moves       =      100
redata: Force tolerance                  =     0.0016  Ry/Bohr
redata: Stress tolerance                 =     1.0000  GPa
redata: ***********************************************************************
Total number of electrons:    32.000000
Total ionic charge:    32.000000
 Kpoints in:  108 . Kpoints trimmed:  108

siesta: k-grid: Number of k-points =   108
siesta: k-grid: Cutoff (effective) =    16.290 Ang
siesta: k-grid: Supercell and displacements
siesta: k-grid:    0   6   0      0.500
siesta: k-grid:    0   0   6      0.500
siesta: k-grid:    6   0   0      0.500
Naive supercell factors:     5    5    5

superc: Internal auxiliary supercell:     5 x     5 x     5  =     125
superc: Number of atoms, orbitals, and projectors:   1000  13000  16000

* Maximum dynamic memory allocated =     1 MB

siesta:                 ==============================
                            Begin CG move =      0
                        ==============================

outcoor: Atomic coordinates (Ang):                          
    0.00000000    0.00000000    0.00000000   1       1  Si
    1.36000000    1.36000000    1.36000000   1       2  Si
    2.72000000    2.72000000    0.00000000   1       3  Si
    4.08000000    4.08000000    1.36000000   1       4  Si
    2.72000000    0.00000000    2.72000000   1       5  Si
    4.08000000    1.36000000    4.08000000   1       6  Si
    0.00000000    2.72000000    2.72000000   1       7  Si
    1.36000000    4.08000000    4.08000000   1       8  Si

superc: Internal auxiliary supercell:     5 x     5 x     5  =     125
superc: Number of atoms, orbitals, and projectors:   1000  13000  16000

outcell: Unit cell vectors (Ang):
        5.430000    0.000000    0.000000
        0.000000    5.430000    0.000000
        0.000000    0.000000    5.430000

outcell: Cell vector modules (Ang)   :    5.430000    5.430000    5.430000
outcell: Cell angles (23,13,12) (deg):     90.0000     90.0000     90.0000
outcell: Cell volume (Ang**3)        :    160.1030
New_DM. Step:     1
Initializing Density Matrix...

InitMesh: MESH =    54 x    54 x    54 =      157464
InitMesh: Mesh cutoff (required, used) =   260.000   273.331 Ry

* Maximum dynamic memory allocated =   180 MB

stepf: Fermi-Dirac step function

siesta: Program's energy decomposition (eV):
siesta: Ebs     =      -348.005507
siesta: Eions   =      1510.441798
siesta: Ena     =       468.364270
siesta: Ekin    =       288.667622
siesta: Enl     =       154.333152
siesta: DEna    =         0.000001
siesta: DUscf   =         0.000000
siesta: DUext   =         0.000000
siesta: Exc     =      -445.546805
siesta: eta*DQ  =         0.000000
siesta: Emadel  =         0.000000
siesta: Emeta   =         0.000000
siesta: Emolmec =         0.000000
siesta: Ekinion =         0.000000
siesta: Eharris =     -1030.807277
siesta: Etot    =     -1044.623558
siesta: FreeEng =     -1044.623558

siesta: iscf   Eharris(eV)      E_KS(eV)   FreeEng(eV)   dDmax  Ef(eV)
siesta:    1    -1030.8073    -1044.6236    -1044.6236  1.7321 -5.3860
timer: Routine,Calls,Time,% = IterSCF        1      45.006  98.29
elaps: Routine,Calls,Wall,% = IterSCF        1      45.855  98.26
siesta:    2    -1030.5580    -1030.4985    -1030.4985  0.0870 -5.0438
siesta:    3    -1030.5507    -1031.0199    -1031.0199  0.0420 -5.0743
siesta:    4    -1030.5484    -1030.5601    -1030.5601  0.0047 -5.0929
siesta:    5    -1030.5484    -1030.5596    -1030.5596  0.0034 -5.0923
siesta:    6    -1030.5485    -1030.5441    -1030.5441  0.0006 -5.0920

siesta: E_KS(eV) =            -1030.5453

siesta: E_KS - E_eggbox =     -1030.5453

siesta: Atomic forces (eV/Ang):
----------------------------------------
   Tot    0.000985    0.000985    0.000963
----------------------------------------
   Max    0.083531
   Res    0.059126    sqrt( Sum f_i^2 / 3N )
----------------------------------------
   Max    0.083531    constrained

Stress-tensor-Voigt (kbar):      -45.45      -45.45      -45.45        1.24        1.24        1.24
(Free)E + p*V (eV/cell)    -1026.0039
Target enthalpy (eV/cell)    -1030.5453

siesta: Stress tensor (static) (eV/Ang**3):
        -0.028366    0.000773    0.000773
         0.000773   -0.028366    0.000773
         0.000773    0.000773   -0.028366

siesta: Pressure (static):         45.44744109  kBar

siesta: Stress tensor (total) (eV/Ang**3):
        -0.028366    0.000773    0.000773
         0.000773   -0.028366    0.000773
         0.000773    0.000773   -0.028366

siesta: Pressure (total):         45.44744109  kBar

mulliken: Mulliken Atomic and Orbital Populations:

Species: Si                  
Atom  Qatom  Qorb
               3s      3s      3py     3pz     3px     3py     3pz     3px     
               3Pdxy   3Pdyz   3Pdz2   3Pdxz   3Pdx2-y2
   1  4.001   0.597   0.593   0.205   0.205   0.205   0.555   0.555   0.555
              0.126   0.126   0.076   0.126   0.076
   2  3.999   0.609   0.587   0.207   0.207   0.207   0.552   0.552   0.552
              0.125   0.125   0.075   0.125   0.075
   3  3.999   0.605   0.589   0.206   0.209   0.206   0.553   0.551   0.553
              0.126   0.125   0.075   0.125   0.076
   4  4.001   0.601   0.591   0.206   0.203   0.206   0.554   0.556   0.554
              0.126   0.126   0.076   0.126   0.076
   5  3.999   0.605   0.589   0.209   0.206   0.206   0.551   0.553   0.553
              0.125   0.125   0.076   0.126   0.075
   6  4.001   0.601   0.591   0.203   0.206   0.206   0.556   0.554   0.554
              0.126   0.126   0.076   0.126   0.076
   7  3.999   0.605   0.589   0.206   0.206   0.209   0.553   0.553   0.551
              0.125   0.126   0.076   0.125   0.075
   8  4.001   0.601   0.591   0.206   0.206   0.203   0.554   0.554   0.556
              0.126   0.126   0.076   0.126   0.076

mulliken: Qtot =       32.000

cgvc: No target stress found, assuming hydrostatic MD.TargetPressure.

cgvc: Target stress (kBar)
cgvc:        -0.000       0.000       0.000
cgvc:         0.000      -0.000       0.000
cgvc:         0.000       0.000      -0.000

* Maximum dynamic memory allocated =   181 MB

siesta:                 ==============================
                            Begin CG move =      1
                        ==============================

outcoor: Atomic coordinates (Ang):                          
    0.00550884    0.00550872    0.00550820   1       1  Si
    1.37597265    1.37597267    1.37597217   1       2  Si
    2.75126252    2.75126248    0.00380947   1       3  Si
    4.12165433    4.12165432    1.37433122   1       4  Si
    2.75126273    0.00381046    2.75126248   1       5  Si
    4.12165450    1.37433141    4.12165469   1       6  Si
    0.00381041    2.75126260    2.75126236   1       7  Si
    1.37433146    4.12165466    4.12165472   1       8  Si
 Kpoints in:  108 . Kpoints trimmed:  108

siesta: k-grid: Number of k-points =   108
siesta: k-grid: Cutoff (effective) =    16.486 Ang
siesta: k-grid: Supercell and displacements
siesta: k-grid:    6   0   0      0.500
siesta: k-grid:    0   6   0      0.500
siesta: k-grid:    0   0   6      0.500
Naive supercell factors:     5    5    5

superc: Internal auxiliary supercell:     5 x     5 x     5  =     125
superc: Number of atoms, orbitals, and projectors:   1000  13000  16000

outcell: Unit cell vectors (Ang):
        5.495239   -0.001777   -0.001778
       -0.001777    5.495239   -0.001778
       -0.001778   -0.001778    5.495239

outcell: Cell vector modules (Ang)   :    5.495239    5.495239    5.495239
outcell: Cell angles (23,13,12) (deg):     90.0371     90.0371     90.0371
outcell: Cell volume (Ang**3)        :    165.9432
New_DM. Step:     2
Re-using DM from previous geometry...
Re-using DM without extrapolation (not allowed)
Density Matrix sparsity pattern changed.

InitMesh: MESH =    54 x    54 x    54 =      157464
InitMesh: Mesh cutoff (required, used) =   260.000   266.880 Ry

siesta: iscf   Eharris(eV)      E_KS(eV)   FreeEng(eV)   dDmax  Ef(eV)
siesta:    1    -1030.6509    -1029.6256    -1029.6256  0.0307 -5.0095
siesta:    2    -1030.6549    -1030.6467    -1030.6467  0.0109 -5.0243
siesta:    3    -1030.6495    -1030.6219    -1030.6219  0.0019 -5.0225
siesta:    4    -1030.6494    -1030.6435    -1030.6435  0.0009 -5.0224

siesta: E_KS(eV) =            -1030.6503

siesta: Atomic forces (eV/Ang):
----------------------------------------
   Tot   -0.001534   -0.001528   -0.001510
----------------------------------------
   Max    0.047571
   Res    0.039367    sqrt( Sum f_i^2 / 3N )
----------------------------------------
   Max    0.047571    constrained

Stress-tensor-Voigt (kbar):      -11.13      -11.13      -11.13       -1.65       -1.65       -1.65
(Free)E + p*V (eV/cell)    -1029.4977
Target enthalpy (eV/cell)    -1030.6503

siesta: Stress tensor (static) (eV/Ang**3):
        -0.006946   -0.001031   -0.001031
        -0.001031   -0.006946   -0.001031
        -0.001031   -0.001031   -0.006946

siesta: Pressure (static):         11.12905169  kBar

siesta: Stress tensor (total) (eV/Ang**3):
        -0.006946   -0.001031   -0.001031
        -0.001031   -0.006946   -0.001031
        -0.001031   -0.001031   -0.006946

siesta: Pressure (total):         11.12905169  kBar

mulliken: Mulliken Atomic and Orbital Populations:

Species: Si                  
Atom  Qatom  Qorb
               3s      3s      3py     3pz     3px     3py     3pz     3px     
               3Pdxy   3Pdyz   3Pdz2   3Pdxz   3Pdx2-y2
   1  4.000   0.633   0.574   0.235   0.235   0.235   0.528   0.528   0.528
              0.120   0.120   0.071   0.120   0.071
   2  4.000   0.630   0.576   0.235   0.235   0.235   0.528   0.528   0.528
              0.120   0.120   0.071   0.120   0.071
   3  4.000   0.631   0.575   0.235   0.234   0.235   0.528   0.529   0.528
              0.120   0.120   0.071   0.120   0.071
   4  4.000   0.632   0.575   0.236   0.236   0.236   0.528   0.527   0.528
              0.120   0.120   0.071   0.120   0.071
   5  4.000   0.631   0.575   0.234   0.235   0.235   0.529   0.528   0.528
              0.120   0.120   0.071   0.120   0.071
   6  4.000   0.632   0.575   0.236   0.236   0.236   0.527   0.528   0.528
              0.120   0.120   0.071   0.120   0.071
   7  4.000   0.631   0.575   0.235   0.235   0.234   0.528   0.528   0.529
              0.120   0.120   0.071   0.120   0.071
   8  4.000   0.632   0.575   0.236   0.236   0.236   0.528   0.528   0.527
              0.120   0.120   0.071   0.120   0.071

mulliken: Qtot =       32.000

* Maximum dynamic memory allocated =   186 MB

siesta:                 ==============================
                            Begin CG move =      2
                        ==============================

outcoor: Atomic coordinates (Ang):                          
    0.01458040    0.01458008    0.01457871   1       1  Si
    1.40155334    1.40155339    1.40155206   1       2  Si
    2.80124982    2.80124971    0.01018212   1       3  Si
    4.18803202    4.18803201    1.39730877   1       4  Si
    2.80125037    0.01018474    2.80124970   1       5  Si
    4.18803248    1.39730927    4.18803298   1       6  Si
    0.01018459    2.80125003    2.80124940   1       7  Si
    1.39730940    4.18803291    4.18803306   1       8  Si
 Kpoints in:  108 . Kpoints trimmed:  108

siesta: k-grid: Number of k-points =   108
siesta: k-grid: Cutoff (effective) =    16.799 Ang
siesta: k-grid: Supercell and displacements
siesta: k-grid:    6   0   0      0.500
siesta: k-grid:    0   6   0      0.500
siesta: k-grid:    0   0   6      0.500
Naive supercell factors:     5    5    5

superc: Internal auxiliary supercell:     5 x     5 x     5  =     125
superc: Number of atoms, orbitals, and projectors:   1000  13000  16000

outcell: Unit cell vectors (Ang):
        5.599620   -0.004621   -0.004622
       -0.004621    5.599621   -0.004622
       -0.004622   -0.004622    5.599621

outcell: Cell vector modules (Ang)   :    5.599624    5.599624    5.599624
outcell: Cell angles (23,13,12) (deg):     90.0945     90.0945     90.0945
outcell: Cell volume (Ang**3)        :    175.5799
New_DM. Step:     3
Re-using DM from previous geometry...
Re-using DM without extrapolation (not allowed)

InitMesh: MESH =    60 x    60 x    60 =      216000
InitMesh: Mesh cutoff (required, used) =   260.000   317.314 Ry

siesta: iscf   Eharris(eV)      E_KS(eV)   FreeEng(eV)   dDmax  Ef(eV)
siesta:    1    -1030.5614    -1029.0917    -1029.0917  0.0398 -4.8865
siesta:    2    -1030.5742    -1030.5476    -1030.5476  0.0182 -4.9147
siesta:    3    -1030.5564    -1030.4977    -1030.4977  0.0030 -4.9079
siesta:    4    -1030.5564    -1030.5453    -1030.5453  0.0014 -4.9076
siesta:    5    -1030.5564    -1030.5553    -1030.5553  0.0009 -4.9073

siesta: E_KS(eV) =            -1030.5565

siesta: Atomic forces (eV/Ang):
----------------------------------------
   Tot    0.000196    0.000199    0.000204
----------------------------------------
   Max    0.230289
   Res    0.168203    sqrt( Sum f_i^2 / 3N )
----------------------------------------
   Max    0.230289    constrained

Stress-tensor-Voigt (kbar):       33.57       33.57       33.57       -4.53       -4.53       -4.53
(Free)E + p*V (eV/cell)    -1034.2357
Target enthalpy (eV/cell)    -1030.5565

siesta: Stress tensor (static) (eV/Ang**3):
         0.020954   -0.002829   -0.002830
        -0.002829    0.020954   -0.002830
        -0.002830   -0.002830    0.020954

siesta: Pressure (static):        -33.57249720  kBar

siesta: Stress tensor (total) (eV/Ang**3):
         0.020954   -0.002829   -0.002830
        -0.002829    0.020954   -0.002830
        -0.002830   -0.002830    0.020954

siesta: Pressure (total):        -33.57249720  kBar

mulliken: Mulliken Atomic and Orbital Populations:

Species: Si                  
Atom  Qatom  Qorb
               3s      3s      3py     3pz     3px     3py     3pz     3px     
               3Pdxy   3Pdyz   3Pdz2   3Pdxz   3Pdx2-y2
   1  4.001   0.688   0.548   0.284   0.284   0.284   0.484   0.484   0.484
              0.111   0.111   0.064   0.111   0.064
   2  4.000   0.662   0.561   0.271   0.271   0.271   0.496   0.496   0.496
              0.114   0.114   0.066   0.114   0.066
   3  4.000   0.671   0.557   0.277   0.271   0.277   0.491   0.495   0.491
              0.112   0.113   0.066   0.113   0.065
   4  4.000   0.679   0.553   0.278   0.283   0.278   0.489   0.486   0.489
              0.112   0.112   0.064   0.112   0.065
   5  4.000   0.671   0.557   0.271   0.277   0.277   0.495   0.491   0.491
              0.113   0.113   0.065   0.112   0.066
   6  4.000   0.679   0.553   0.283   0.278   0.278   0.486   0.489   0.489
              0.112   0.112   0.065   0.112   0.064
   7  4.000   0.671   0.557   0.277   0.277   0.271   0.491   0.491   0.495
              0.113   0.112   0.065   0.113   0.066
   8  4.000   0.679   0.553   0.278   0.278   0.283   0.489   0.489   0.486
              0.112   0.112   0.065   0.112   0.064

mulliken: Qtot =       32.000

* Maximum dynamic memory allocated =   218 MB

siesta:                 ==============================
                            Begin CG move =      3
                        ==============================

outcoor: Atomic coordinates (Ang):                          
    0.00734947    0.00734931    0.00734861   1       1  Si
    1.38123352    1.38123355    1.38123288   1       2  Si
    2.76155091    2.76155085    0.00509276   1       3  Si
    4.13533888    4.13533888    1.37905416   1       4  Si
    2.76155118    0.00509409    2.76155084   1       5  Si
    4.13533911    1.37905441    4.13533937   1       6  Si
    0.00509401    2.76155101    2.76155069   1       7  Si
    1.37905448    4.13533933    4.13533941   1       8  Si
 Kpoints in:  108 . Kpoints trimmed:  108

siesta: k-grid: Number of k-points =   108
siesta: k-grid: Cutoff (effective) =    16.550 Ang
siesta: k-grid: Supercell and displacements
siesta: k-grid:    6   0   0      0.500
siesta: k-grid:    0   6   0      0.500
siesta: k-grid:    0   0   6      0.500
Naive supercell factors:     5    5    5

superc: Internal auxiliary supercell:     5 x     5 x     5  =     125
superc: Number of atoms, orbitals, and projectors:   1000  13000  16000

outcell: Unit cell vectors (Ang):
        5.516716   -0.002363   -0.002363
       -0.002363    5.516716   -0.002363
       -0.002363   -0.002363    5.516716

outcell: Cell vector modules (Ang)   :    5.516717    5.516717    5.516717
outcell: Cell angles (23,13,12) (deg):     90.0491     90.0491     90.0491
outcell: Cell volume (Ang**3)        :    167.8965
New_DM. Step:     4
Re-using DM from previous geometry...
Re-using DM without extrapolation (not allowed)

InitMesh: MESH =    54 x    54 x    54 =      157464
InitMesh: Mesh cutoff (required, used) =   260.000   264.806 Ry

siesta: iscf   Eharris(eV)      E_KS(eV)   FreeEng(eV)   dDmax  Ef(eV)
siesta:    1    -1030.6574    -1031.7362    -1031.7362  0.0307 -5.0018
siesta:    2    -1030.6639    -1030.6500    -1030.6500  0.0137 -5.0023
siesta:    3    -1030.6546    -1030.6935    -1030.6935  0.0021 -5.0030
siesta:    4    -1030.6546    -1030.6599    -1030.6599  0.0011 -5.0030
siesta:    5    -1030.6546    -1030.6534    -1030.6534  0.0007 -5.0033

siesta: E_KS(eV) =            -1030.6535

siesta: Atomic forces (eV/Ang):
----------------------------------------
   Tot    0.000013    0.000019    0.000019
----------------------------------------
   Max    0.089807
   Res    0.068923    sqrt( Sum f_i^2 / 3N )
----------------------------------------
   Max    0.089807    constrained

Stress-tensor-Voigt (kbar):       -0.63       -0.63       -0.63       -2.31       -2.31       -2.31
(Free)E + p*V (eV/cell)    -1030.5878
Target enthalpy (eV/cell)    -1030.6535

siesta: Stress tensor (static) (eV/Ang**3):
        -0.000391   -0.001442   -0.001442
        -0.001442   -0.000391   -0.001442
        -0.001442   -0.001442   -0.000391

siesta: Pressure (static):          0.62698250  kBar

siesta: Stress tensor (total) (eV/Ang**3):
        -0.000391   -0.001442   -0.001442
        -0.001442   -0.000391   -0.001442
        -0.001442   -0.001442   -0.000391

siesta: Pressure (total):          0.62698250  kBar

mulliken: Mulliken Atomic and Orbital Populations:

Species: Si                  
Atom  Qatom  Qorb
               3s      3s      3py     3pz     3px     3py     3pz     3px     
               3Pdxy   3Pdyz   3Pdz2   3Pdxz   3Pdx2-y2
   1  3.999   0.643   0.570   0.246   0.246   0.246   0.518   0.518   0.518
              0.118   0.118   0.070   0.118   0.070
   2  4.001   0.636   0.573   0.242   0.242   0.242   0.522   0.522   0.522
              0.119   0.119   0.070   0.119   0.070
   3  4.000   0.638   0.573   0.244   0.242   0.244   0.520   0.521   0.520
              0.119   0.119   0.070   0.119   0.070
   4  4.000   0.641   0.571   0.244   0.245   0.244   0.521   0.519   0.521
              0.119   0.118   0.070   0.118   0.070
   5  4.000   0.638   0.573   0.242   0.244   0.244   0.521   0.520   0.520
              0.119   0.119   0.070   0.119   0.070
   6  4.000   0.641   0.571   0.245   0.244   0.244   0.519   0.521   0.521
              0.118   0.118   0.070   0.119   0.070
   7  4.000   0.638   0.573   0.244   0.244   0.242   0.520   0.520   0.521
              0.119   0.119   0.070   0.119   0.070
   8  4.000   0.641   0.571   0.244   0.244   0.245   0.521   0.521   0.519
              0.118   0.119   0.070   0.118   0.070

mulliken: Qtot =       32.000

cgvc: Finished line minimization    1.  Mean atomic displacement =    0.0940

* Maximum dynamic memory allocated =   218 MB

siesta:                 ==============================
                            Begin CG move =      4
                        ==============================

outcoor: Atomic coordinates (Ang):                          
   -0.02675443   -0.02675318   -0.02674373   1       1  Si
    1.41524997    1.41525034    1.41524910   1       2  Si
    2.77168211    2.77168305   -0.00874975   1       3  Si
    4.21373949    4.21373930    1.43275104   1       4  Si
    2.77168515   -0.00876105    2.77168791   1       5  Si
    4.21374010    1.43275531    4.21373118   1       6  Si
   -0.00876268    2.77168726    2.77168949   1       7  Si
    1.43275456    4.21373791    4.21373058   1       8  Si
 Kpoints in:  108 . Kpoints trimmed:  108

siesta: k-grid: Number of k-points =   108
siesta: k-grid: Cutoff (effective) =    16.648 Ang
siesta: k-grid: Supercell and displacements
siesta: k-grid:    0   0   6      0.500
siesta: k-grid:    0   6   0      0.500
siesta: k-grid:    6   0   0      0.500
Naive supercell factors:     5    5    5

superc: Internal auxiliary supercell:     5 x     5 x     5  =     125
superc: Number of atoms, orbitals, and projectors:   1000  13000  16000

outcell: Unit cell vectors (Ang):
        5.549284    0.017416    0.017420
        0.017416    5.549284    0.017420
        0.017420    0.017420    5.549284

outcell: Cell vector modules (Ang)   :    5.549339    5.549339    5.549339
outcell: Cell angles (23,13,12) (deg):     89.6397     89.6397     89.6398
outcell: Cell volume (Ang**3)        :    170.8827
New_DM. Step:     5
Re-using DM from previous geometry...
Re-using DM without extrapolation (not allowed)
Density Matrix sparsity pattern changed.

InitMesh: MESH =    54 x    54 x    54 =      157464
InitMesh: Mesh cutoff (required, used) =   260.000   261.722 Ry

siesta: iscf   Eharris(eV)      E_KS(eV)   FreeEng(eV)   dDmax  Ef(eV)
siesta:    1    -1030.4720    -1030.0831    -1030.0831  0.0276 -4.8403
siesta:    2    -1030.5014    -1030.4269    -1030.4269  0.0289 -4.8409
siesta:    3    -1030.4532    -1030.3868    -1030.3868  0.0068 -4.8357
siesta:    4    -1030.4532    -1030.4477    -1030.4477  0.0012 -4.8359
siesta:    5    -1030.4531    -1030.4519    -1030.4519  0.0008 -4.8367

siesta: E_KS(eV) =            -1030.4506

siesta: Atomic forces (eV/Ang):
----------------------------------------
   Tot   -0.002333   -0.002341   -0.002366
----------------------------------------
   Max    0.683343
   Res    0.568870    sqrt( Sum f_i^2 / 3N )
----------------------------------------
   Max    0.683343    constrained

Stress-tensor-Voigt (kbar):       10.64       10.64       10.64       18.84       18.85       18.85
(Free)E + p*V (eV/cell)    -1031.5850
Target enthalpy (eV/cell)    -1030.4506

siesta: Stress tensor (static) (eV/Ang**3):
         0.006639    0.011759    0.011762
         0.011759    0.006638    0.011763
         0.011762    0.011763    0.006638

siesta: Pressure (static):        -10.63593793  kBar

siesta: Stress tensor (total) (eV/Ang**3):
         0.006639    0.011759    0.011762
         0.011759    0.006638    0.011763
         0.011762    0.011763    0.006638

siesta: Pressure (total):        -10.63593793  kBar

mulliken: Mulliken Atomic and Orbital Populations:

Species: Si                  
Atom  Qatom  Qorb
               3s      3s      3py     3pz     3px     3py     3pz     3px     
               3Pdxy   3Pdyz   3Pdz2   3Pdxz   3Pdx2-y2
   1  4.003   0.632   0.576   0.251   0.251   0.251   0.516   0.516   0.516
              0.118   0.118   0.070   0.118   0.070
   2  3.999   0.669   0.558   0.263   0.263   0.263   0.502   0.502   0.502
              0.114   0.114   0.067   0.114   0.067
   3  3.999   0.656   0.564   0.257   0.265   0.257   0.508   0.502   0.508
              0.116   0.115   0.067   0.115   0.069
   4  4.001   0.644   0.570   0.257   0.249   0.257   0.510   0.515   0.510
              0.116   0.117   0.070   0.117   0.068
   5  3.999   0.656   0.564   0.265   0.257   0.257   0.502   0.508   0.508
              0.115   0.115   0.068   0.116   0.067
   6  4.001   0.644   0.570   0.249   0.257   0.257   0.515   0.510   0.510
              0.117   0.117   0.069   0.116   0.069
   7  3.999   0.656   0.564   0.257   0.257   0.265   0.508   0.508   0.502
              0.115   0.116   0.068   0.115   0.067
   8  4.001   0.644   0.570   0.257   0.257   0.249   0.510   0.510   0.515
              0.117   0.116   0.069   0.117   0.069

mulliken: Qtot =       32.000

* Maximum dynamic memory allocated =   218 MB

siesta:                 ==============================
                            Begin CG move =      5
                        ==============================

outcoor: Atomic coordinates (Ang):                          
    0.00380766    0.00380765    0.00380802   1       1  Si
    1.38478831    1.38478838    1.38478764   1       2  Si
    2.76264082    2.76264087    0.00366755   1       3  Si
    4.14354112    4.14354109    1.38466472   1       4  Si
    2.76264139    0.00366755    2.76264138   1       5  Si
    4.14354139    1.38466540    4.14354068   1       6  Si
    0.00366731    2.76264146    2.76264141   1       7  Si
    1.38466538    4.14354136    4.14354065   1       8  Si
 Kpoints in:  108 . Kpoints trimmed:  108

siesta: k-grid: Number of k-points =   108
siesta: k-grid: Cutoff (effective) =    16.560 Ang
siesta: k-grid: Supercell and displacements
siesta: k-grid:    6   0   0      0.500
siesta: k-grid:    0   6   0      0.500
siesta: k-grid:    0   0   6      0.500
Naive supercell factors:     5    5    5

superc: Internal auxiliary supercell:     5 x     5 x     5  =     125
superc: Number of atoms, orbitals, and projectors:   1000  13000  16000

outcell: Unit cell vectors (Ang):
        5.520138   -0.000284   -0.000284
       -0.000284    5.520138   -0.000284
       -0.000284   -0.000284    5.520138

outcell: Cell vector modules (Ang)   :    5.520138    5.520138    5.520138
outcell: Cell angles (23,13,12) (deg):     90.0059     90.0059     90.0059
outcell: Cell volume (Ang**3)        :    168.2092
New_DM. Step:     6
Re-using DM from previous geometry...
Re-using DM without extrapolation (not allowed)
Density Matrix sparsity pattern changed.

InitMesh: MESH =    54 x    54 x    54 =      157464
InitMesh: Mesh cutoff (required, used) =   260.000   264.478 Ry

siesta: iscf   Eharris(eV)      E_KS(eV)   FreeEng(eV)   dDmax  Ef(eV)
siesta:    1    -1030.6712    -1030.9841    -1030.9841  0.0245 -4.9951
siesta:    2    -1030.6955    -1030.6357    -1030.6357  0.0231 -4.9910
siesta:    3    -1030.6569    -1030.6952    -1030.6952  0.0059 -5.0042
siesta:    4    -1030.6568    -1030.6444    -1030.6444  0.0009 -5.0031

siesta: E_KS(eV) =            -1030.6468

siesta: Atomic forces (eV/Ang):
----------------------------------------
   Tot    0.002428    0.002431    0.002414
----------------------------------------
   Max    0.047202
   Res    0.039921    sqrt( Sum f_i^2 / 3N )
----------------------------------------
   Max    0.047202    constrained

Stress-tensor-Voigt (kbar):        1.32        1.32        1.32        0.13        0.14        0.14
(Free)E + p*V (eV/cell)    -1030.7852
Target enthalpy (eV/cell)    -1030.6468

siesta: Stress tensor (static) (eV/Ang**3):
         0.000823    0.000084    0.000084
         0.000084    0.000823    0.000084
         0.000084    0.000084    0.000822

siesta: Pressure (static):         -1.31791007  kBar

siesta: Stress tensor (total) (eV/Ang**3):
         0.000823    0.000084    0.000084
         0.000084    0.000823    0.000084
         0.000084    0.000084    0.000822

siesta: Pressure (total):         -1.31791007  kBar

mulliken: Mulliken Atomic and Orbital Populations:

Species: Si                  
Atom  Qatom  Qorb
               3s      3s      3py     3pz     3px     3py     3pz     3px     
               3Pdxy   3Pdyz   3Pdz2   3Pdxz   3Pdx2-y2
   1  3.999   0.642   0.571   0.246   0.246   0.246   0.518   0.518   0.518
              0.118   0.118   0.070   0.118   0.070
   2  4.001   0.640   0.572   0.244   0.244   0.244   0.520   0.520   0.520
              0.119   0.119   0.070   0.119   0.070
   3  4.000   0.640   0.572   0.246   0.245   0.246   0.519   0.519   0.519
              0.118   0.119   0.070   0.119   0.070
   4  4.000   0.642   0.571   0.245   0.245   0.245   0.520   0.519   0.520
              0.118   0.118   0.070   0.118   0.070
   5  4.000   0.640   0.572   0.245   0.246   0.246   0.519   0.519   0.519
              0.119   0.119   0.070   0.118   0.070
   6  4.000   0.642   0.571   0.245   0.245   0.245   0.519   0.520   0.520
              0.118   0.118   0.070   0.118   0.070
   7  4.000   0.640   0.572   0.246   0.246   0.245   0.519   0.519   0.519
              0.119   0.118   0.070   0.119   0.070
   8  4.000   0.642   0.571   0.245   0.245   0.245   0.520   0.520   0.519
              0.118   0.118   0.070   0.118   0.070

mulliken: Qtot =       32.000

cgvc: Finished line minimization    2.  Mean atomic displacement =    0.0099

* Maximum dynamic memory allocated =   218 MB

siesta:                 ==============================
                            Begin CG move =      6
                        ==============================

outcoor: Atomic coordinates (Ang):                          
    0.00048231    0.00048248    0.00048257   1       1  Si
    1.38586555    1.38586579    1.38586714   1       2  Si
    2.76751071    2.76751077    0.00379548   1       3  Si
    4.15298377    4.15298405    1.38913240   1       4  Si
    2.76751135    0.00379506    2.76751017   1       5  Si
    4.15298424    1.38913199    4.15298330   1       6  Si
    0.00379467    2.76751165    2.76751068   1       7  Si
    1.38913186    4.15298395    4.15298315   1       8  Si
 Kpoints in:  108 . Kpoints trimmed:  108

siesta: k-grid: Number of k-points =   108
siesta: k-grid: Cutoff (effective) =    16.571 Ang
siesta: k-grid: Supercell and displacements
siesta: k-grid:    0   6   0      0.500
siesta: k-grid:    6   0   0      0.500
siesta: k-grid:    0   0   6      0.500
Naive supercell factors:     5    5    5

superc: Internal auxiliary supercell:     5 x     5 x     5  =     125
superc: Number of atoms, orbitals, and projectors:   1000  13000  16000

outcell: Unit cell vectors (Ang):
        5.523505    0.003145    0.003145
        0.003145    5.523505    0.003146
        0.003145    0.003146    5.523505

outcell: Cell vector modules (Ang)   :    5.523506    5.523506    5.523507
outcell: Cell angles (23,13,12) (deg):     89.9347     89.9347     89.9347
outcell: Cell volume (Ang**3)        :    168.5170
New_DM. Step:     7
Re-using DM from previous geometry...
Re-using DM without extrapolation (not allowed)
Density Matrix sparsity pattern changed.

InitMesh: MESH =    54 x    54 x    54 =      157464
InitMesh: Mesh cutoff (required, used) =   260.000   264.156 Ry

siesta: iscf   Eharris(eV)      E_KS(eV)   FreeEng(eV)   dDmax  Ef(eV)
siesta:    1    -1030.6555    -1030.5980    -1030.5980  0.0024 -4.9957
siesta:    2    -1030.6580    -1030.6529    -1030.6529  0.0070 -4.9980
siesta:    3    -1030.6546    -1030.6335    -1030.6335  0.0018 -4.9966
siesta:    4    -1030.6546    -1030.6541    -1030.6541  0.0002 -4.9969

siesta: E_KS(eV) =            -1030.6545

siesta: Atomic forces (eV/Ang):
----------------------------------------
   Tot   -0.001625   -0.001623   -0.001628
----------------------------------------
   Max    0.076514
   Res    0.054911    sqrt( Sum f_i^2 / 3N )
----------------------------------------
   Max    0.076514    constrained

Stress-tensor-Voigt (kbar):        2.36        2.36        2.36        2.19        2.19        2.19
(Free)E + p*V (eV/cell)    -1030.9026
Target enthalpy (eV/cell)    -1030.6545

siesta: Stress tensor (static) (eV/Ang**3):
         0.001472    0.001368    0.001368
         0.001368    0.001472    0.001368
         0.001368    0.001368    0.001472

siesta: Pressure (static):         -2.35905548  kBar

siesta: Stress tensor (total) (eV/Ang**3):
         0.001472    0.001368    0.001368
         0.001368    0.001472    0.001368
         0.001368    0.001368    0.001472

siesta: Pressure (total):         -2.35905548  kBar

mulliken: Mulliken Atomic and Orbital Populations:

Species: Si                  
Atom  Qatom  Qorb
               3s      3s      3py     3pz     3px     3py     3pz     3px     
               3Pdxy   3Pdyz   3Pdz2   3Pdxz   3Pdx2-y2
   1  4.000   0.638   0.572   0.245   0.245   0.245   0.519   0.519   0.519
              0.119   0.119   0.070   0.119   0.070
   2  4.000   0.648   0.568   0.248   0.248   0.248   0.516   0.516   0.516
              0.118   0.118   0.069   0.118   0.069
   3  4.000   0.644   0.570   0.247   0.249   0.247   0.517   0.516   0.517
              0.118   0.118   0.069   0.118   0.070
   4  4.000   0.642   0.570   0.246   0.244   0.246   0.518   0.520   0.518
              0.118   0.118   0.070   0.118   0.069
   5  4.000   0.644   0.570   0.249   0.247   0.247   0.516   0.517   0.517
              0.118   0.118   0.069   0.118   0.069
   6  4.000   0.642   0.570   0.244   0.246   0.246   0.520   0.518   0.518
              0.118   0.118   0.070   0.118   0.070
   7  4.000   0.644   0.570   0.247   0.247   0.249   0.517   0.517   0.516
              0.118   0.118   0.069   0.118   0.069
   8  4.000   0.642   0.570   0.246   0.246   0.244   0.518   0.518   0.520
              0.118   0.118   0.070   0.118   0.070

mulliken: Qtot =       32.000

* Maximum dynamic memory allocated =   218 MB

siesta:                 ==============================
                            Begin CG move =      7
                        ==============================

outcoor: Atomic coordinates (Ang):                          
    0.00459380    0.00459375    0.00459419   1       1  Si
    1.38453225    1.38453227    1.38453105   1       2  Si
    2.76148681    2.76148686    0.00363718   1       3  Si
    4.14130464    4.14130454    1.38360709   1       4  Si
    2.76148736    0.00363728    2.76148763   1       5  Si
    4.14130485    1.38360802    4.14130420   1       6  Si
    0.00363708    2.76148738    2.76148755   1       7  Si
    1.38360803    4.14130488    4.14130421   1       8  Si
 Kpoints in:  108 . Kpoints trimmed:  108

siesta: k-grid: Number of k-points =   108
siesta: k-grid: Cutoff (effective) =    16.558 Ang
siesta: k-grid: Supercell and displacements
siesta: k-grid:    0   0   6      0.500
siesta: k-grid:    6   0   0      0.500
siesta: k-grid:    0   6   0      0.500
Naive supercell factors:     5    5    5

superc: Internal auxiliary supercell:     5 x     5 x     5  =     125
superc: Number of atoms, orbitals, and projectors:   1000  13000  16000

outcell: Unit cell vectors (Ang):
        5.519340   -0.001097   -0.001097
       -0.001097    5.519340   -0.001097
       -0.001097   -0.001097    5.519340

outcell: Cell vector modules (Ang)   :    5.519340    5.519340    5.519340
outcell: Cell angles (23,13,12) (deg):     90.0228     90.0228     90.0228
outcell: Cell volume (Ang**3)        :    168.1362
New_DM. Step:     8
Re-using DM from previous geometry...
Re-using DM without extrapolation (not allowed)
Density Matrix sparsity pattern changed.

InitMesh: MESH =    54 x    54 x    54 =      157464
InitMesh: Mesh cutoff (required, used) =   260.000   264.554 Ry

siesta: iscf   Eharris(eV)      E_KS(eV)   FreeEng(eV)   dDmax  Ef(eV)
siesta:    1    -1030.6579    -1030.7140    -1030.7140  0.0025 -4.9936
siesta:    2    -1030.6619    -1030.6539    -1030.6539  0.0084 -4.9938
siesta:    3    -1030.6566    -1030.6779    -1030.6779  0.0021 -4.9931
siesta:    4    -1030.6566    -1030.6559    -1030.6559  0.0001 -4.9928

siesta: E_KS(eV) =            -1030.6561

siesta: Atomic forces (eV/Ang):
----------------------------------------
   Tot    0.001588    0.001599    0.001584
----------------------------------------
   Max    0.025467
   Res    0.019919    sqrt( Sum f_i^2 / 3N )
----------------------------------------
   Max    0.025467    constrained

Stress-tensor-Voigt (kbar):        0.51        0.51        0.51       -0.15       -0.15       -0.15
(Free)E + p*V (eV/cell)    -1030.7093
Target enthalpy (eV/cell)    -1030.6561

siesta: Stress tensor (static) (eV/Ang**3):
         0.000317   -0.000094   -0.000094
        -0.000094    0.000317   -0.000094
        -0.000094   -0.000094    0.000317

siesta: Pressure (static):         -0.50716536  kBar

siesta: Stress tensor (total) (eV/Ang**3):
         0.000317   -0.000094   -0.000094
        -0.000094    0.000317   -0.000094
        -0.000094   -0.000094    0.000317

siesta: Pressure (total):         -0.50716536  kBar

mulliken: Mulliken Atomic and Orbital Populations:

Species: Si                  
Atom  Qatom  Qorb
               3s      3s      3py     3pz     3px     3py     3pz     3px     
               3Pdxy   3Pdyz   3Pdz2   3Pdxz   3Pdx2-y2
   1  4.000   0.643   0.570   0.247   0.247   0.247   0.518   0.518   0.518
              0.118   0.118   0.069   0.118   0.069
   2  4.000   0.639   0.572   0.243   0.243   0.243   0.521   0.521   0.521
              0.119   0.119   0.070   0.119   0.070
   3  4.000   0.639   0.572   0.246   0.244   0.246   0.519   0.520   0.519
              0.118   0.119   0.070   0.119   0.070
   4  4.000   0.642   0.570   0.245   0.246   0.245   0.520   0.519   0.520
              0.118   0.118   0.070   0.118   0.070
   5  4.000   0.639   0.572   0.244   0.246   0.246   0.520   0.519   0.519
              0.119   0.119   0.070   0.118   0.070
   6  4.000   0.642   0.570   0.246   0.245   0.245   0.519   0.520   0.520
              0.118   0.118   0.070   0.118   0.070
   7  4.000   0.639   0.572   0.246   0.246   0.244   0.519   0.519   0.520
              0.119   0.118   0.070   0.119   0.070
   8  4.000   0.642   0.570   0.245   0.245   0.246   0.520   0.520   0.519
              0.118   0.118   0.070   0.118   0.070

mulliken: Qtot =       32.000

* Maximum dynamic memory allocated =   218 MB

outcoor: Relaxed atomic coordinates (Ang):                  
    0.00459380    0.00459375    0.00459419   1       1  Si
    1.38453225    1.38453227    1.38453105   1       2  Si
    2.76148681    2.76148686    0.00363718   1       3  Si
    4.14130464    4.14130454    1.38360709   1       4  Si
    2.76148736    0.00363728    2.76148763   1       5  Si
    4.14130485    1.38360802    4.14130420   1       6  Si
    0.00363708    2.76148738    2.76148755   1       7  Si
    1.38360803    4.14130488    4.14130421   1       8  Si

outcell: Unit cell vectors (Ang):
        5.519340   -0.001097   -0.001097
       -0.001097    5.519340   -0.001097
       -0.001097   -0.001097    5.519340

outcell: Cell vector modules (Ang)   :    5.519340    5.519340    5.519340
outcell: Cell angles (23,13,12) (deg):     90.0228     90.0228     90.0228
outcell: Cell volume (Ang**3)        :    168.1362

coxmol: Writing XMOL coordinates into file si.xyz                                                          
Writing WFSX for selected k-points in si.selected.WFSX

writewave: Wave Functions Coefficients

     Number of k-points =        1
        Number of Spins =        1
   Number of basis orbs =      104


                                                                  ******
            k-point =        1    0.000000  0.000000  0.000000
     Spin component =        1
 Num. wavefunctions =       50
Use readwfsx utility to print wavefunction coefficients from WFSX file
Computing bands...

siesta: Band k vectors (Bohr**-1):
  ik           k
   1    0.306162    0.306162    0.306162
   2    0.293915    0.293915    0.293915
   3    0.281669    0.281669    0.281669
   4    0.269422    0.269422    0.269422
   5    0.257176    0.257176    0.257176
   6    0.244929    0.244929    0.244929
   7    0.232683    0.232683    0.232683
   8    0.220436    0.220436    0.220436
   9    0.208190    0.208190    0.208190
  10    0.195944    0.195944    0.195944
  11    0.183697    0.183697    0.183697
  12    0.171451    0.171451    0.171451
  13    0.159204    0.159204    0.159204
  14    0.146958    0.146958    0.146958
  15    0.134711    0.134711    0.134711
  16    0.122465    0.122465    0.122465
  17    0.110218    0.110218    0.110218
  18    0.097972    0.097972    0.097972
  19    0.085725    0.085725    0.085725
  20    0.073479    0.073479    0.073479
  21    0.061232    0.061232    0.061232
  22    0.048986    0.048986    0.048986
  23    0.036739    0.036739    0.036739
  24    0.024493    0.024493    0.024493
  25    0.012246    0.012246    0.012246
  26    0.000000    0.000000    0.000000
  27    0.020411    0.000000    0.000000
  28    0.040822    0.000000    0.000000
  29    0.061232    0.000000    0.000000
  30    0.081643    0.000000    0.000000
  31    0.102054    0.000000    0.000000
  32    0.122465    0.000000    0.000000
  33    0.142876    0.000000    0.000000
  34    0.163286    0.000000    0.000000
  35    0.183697    0.000000    0.000000
  36    0.204108    0.000000    0.000000
  37    0.224519    0.000000    0.000000
  38    0.244929    0.000000    0.000000
  39    0.265340    0.000000    0.000000
  40    0.285751    0.000000    0.000000
  41    0.306162    0.000000    0.000000
  42    0.326573    0.000000    0.000000
  43    0.346983    0.000000    0.000000
  44    0.367394    0.000000    0.000000
  45    0.387805    0.000000    0.000000
  46    0.408216    0.000000    0.000000
  47    0.428627    0.000000    0.000000
  48    0.449037    0.000000    0.000000
  49    0.469448    0.000000    0.000000
  50    0.489859    0.000000    0.000000
  51    0.510270    0.000000    0.000000
  52    0.530680    0.000000    0.000000
  53    0.551091    0.000000    0.000000
  54    0.571502    0.000000    0.000000
  55    0.591913    0.000000    0.000000
  56    0.612324    0.000000    0.000000
  57    0.612324    0.015308    0.015308
  58    0.612324    0.030616    0.030616
  59    0.612324    0.045924    0.045924
  60    0.612324    0.061232    0.061232
  61    0.612324    0.076540    0.076540
  62    0.612324    0.091849    0.091849
  63    0.612324    0.107157    0.107157
  64    0.612324    0.122465    0.122465
  65    0.612324    0.137773    0.137773
  66    0.612324    0.153081    0.153081
  67    0.594829    0.148707    0.148707
  68    0.577334    0.144333    0.144333
  69    0.559839    0.139960    0.139960
  70    0.542344    0.135586    0.135586
  71    0.524849    0.131212    0.131212
  72    0.507354    0.126838    0.126838
  73    0.489859    0.122465    0.122465
  74    0.472364    0.118091    0.118091
  75    0.454869    0.113717    0.113717
  76    0.437374    0.109344    0.109344
  77    0.419879    0.104970    0.104970
  78    0.402384    0.100596    0.100596
  79    0.384889    0.096222    0.096222
  80    0.367394    0.091849    0.091849
  81    0.349899    0.087475    0.087475
  82    0.332404    0.083101    0.083101
  83    0.314909    0.078727    0.078727
  84    0.297414    0.074354    0.074354
  85    0.279919    0.069980    0.069980
  86    0.262424    0.065606    0.065606
  87    0.244929    0.061232    0.061232
  88    0.227434    0.056859    0.056859
  89    0.209940    0.052485    0.052485
  90    0.192445    0.048111    0.048111
  91    0.174950    0.043737    0.043737
  92    0.157455    0.039364    0.039364
  93    0.139960    0.034990    0.034990
  94    0.122465    0.030616    0.030616
  95    0.104970    0.026242    0.026242
  96    0.087475    0.021869    0.021869
  97    0.069980    0.017495    0.017495
  98    0.052485    0.013121    0.013121
  99    0.034990    0.008747    0.008747
 100    0.017495    0.004374    0.004374
 101    0.000000    0.000000    0.000000

siesta: Band energies (eV):
  ik is    eps
   1  1 -14.87 -14.86 -14.86 -14.85 -12.20 -12.20 -12.20 -12.19  -6.61  -6.61
         -6.60  -6.60  -6.60  -6.60  -6.58  -6.58  -4.00  -3.99  -3.99  -3.99
         -1.95  -1.95  -1.94  -1.93  -1.93  -1.93  -1.93  -1.93   3.49   3.52
          3.52   3.53   5.51   5.51   5.51   5.54   5.54   5.59   5.59   5.59
          5.93   5.96   5.96   5.96   6.05   6.05   6.05   6.12   6.12   6.13
          6.14   6.14   8.37   8.37   8.37   8.38  16.43  16.43  16.43  16.44
         17.38  17.38  17.39  17.40  17.40  17.40  17.40  17.40  19.38  19.38
         19.39  19.39  19.39  19.39  19.41  19.41  19.93  19.93  19.93  20.01
         28.95  28.95  28.95  28.96  28.96  28.98  28.98  28.98  65.06  65.22
         65.22  65.32  79.34  79.34  79.57  79.73  79.73  79.82  80.16  80.16
        115.87 116.85 116.85 116.93
   2  1 -14.88 -14.86 -14.86 -14.85 -12.20 -12.20 -12.20 -12.18  -6.61  -6.61
         -6.60  -6.60  -6.60  -6.60  -6.58  -6.58  -4.00  -3.98  -3.98  -3.98
         -1.95  -1.95  -1.94  -1.93  -1.93  -1.93  -1.92  -1.92   3.49   3.51
          3.51   3.53   5.43   5.43   5.43   5.48   5.48   5.58   5.58   5.58
          5.92   5.97   5.97   5.97   6.05   6.05   6.06   6.18   6.18   6.21
          6.21   6.21   8.37   8.37   8.37   8.39  16.42  16.43  16.43  16.43
         17.37  17.37  17.39  17.39  17.39  17.39  17.39  17.39  19.38  19.38
         19.39  19.39  19.39  19.39  19.42  19.42  19.88  19.88  19.88  20.03
         28.94  28.94  28.94  28.96  28.96  28.98  28.98  28.98  64.93  65.20
         65.20  65.26  78.37  78.37  78.44  79.33  79.33  79.42  79.97  79.97
        115.49 116.97 116.97 117.02
   3  1 -14.92 -14.86 -14.86 -14.85 -12.19 -12.19 -12.19 -12.12  -6.70  -6.70
         -6.70  -6.63  -6.63  -6.62  -6.58  -6.58  -3.99  -3.88  -3.88  -3.88
         -1.96  -1.96  -1.96  -1.93  -1.93  -1.88  -1.88  -1.88   3.46   3.47
          3.47   3.50   4.98   4.98   4.98   5.11   5.11   5.56   5.56   5.56
          5.80   6.02   6.02   6.02   6.10   6.10   6.10   6.59   6.59   6.72
          6.72   6.72   8.41   8.41   8.41   8.48  16.31  16.40  16.40  16.40
         17.21  17.21  17.28  17.28  17.28  17.35  17.35  17.35  19.33  19.33
         19.33  19.34  19.34  19.34  19.46  19.46  19.47  19.52  19.52  20.21
         28.81  28.81  28.81  29.01  29.01  29.04  29.04  29.04  63.24  64.43
         64.43  64.44  70.64  70.64  70.66  75.66  75.67  75.67  79.57  79.57
        111.77 114.85 114.85 114.88
   4  1 -15.00 -14.85 -14.85 -14.85 -12.16 -12.16 -12.16 -11.99  -6.85  -6.85
         -6.85  -6.67  -6.67  -6.66  -6.57  -6.57  -3.98  -3.73  -3.73  -3.73
         -1.99  -1.99  -1.99  -1.92  -1.92  -1.80  -1.80  -1.80   3.35   3.35
          3.35   3.47   4.60   4.60   4.60   4.72   4.72   5.51   5.51   5.51
          5.61   6.09   6.09   6.09   6.17   6.17   6.17   7.04   7.04   7.27
          7.27   7.27   8.48   8.48   8.48   8.63  16.14  16.31  16.31  16.31
         16.95  16.95  17.08  17.08  17.08  17.30  17.30  17.30  18.77  18.77
         18.77  19.23  19.23  19.23  19.39  19.39  19.39  19.68  19.68  20.52
         28.56  28.56  28.56  29.10  29.10  29.19  29.19  29.19  59.02  59.02
         59.02  60.12  67.35  67.35  67.35  70.30  70.30  70.30  79.06  79.06
        106.30 106.57 106.57 106.63
   5  1 -15.10 -14.83 -14.83 -14.83 -12.13 -12.13 -12.13 -11.82  -7.05  -7.05
         -7.05  -6.73  -6.73  -6.73  -6.56  -6.56  -3.96  -3.55  -3.55  -3.55
         -2.01  -2.01  -2.01  -1.91  -1.91  -1.68  -1.68  -1.68   3.11   3.11
          3.11   3.42   4.33   4.33   4.35   4.35   4.35   5.39   5.47   5.47
          5.47   6.18   6.18   6.18   6.27   6.27   6.27   7.51   7.51   7.80
          7.80   7.80   8.62   8.62   8.62   8.78  15.96  16.10  16.10  16.10
         16.61  16.61  16.80  16.80  16.80  17.26  17.26  17.26  18.21  18.21
         18.21  19.07  19.07  19.07  19.39  19.39  19.39  19.86  19.86  20.91
         28.19  28.19  28.19  29.23  29.23  29.46  29.46  29.47  52.12  52.12
         52.12  56.01  65.07  65.07  65.07  67.19  67.19  67.20  78.33  78.33
         96.54  96.54  96.55 100.88
   6  1 -15.23 -14.82 -14.82 -14.81 -12.09 -12.09 -12.09 -11.61  -7.28  -7.28
         -7.28  -6.80  -6.80  -6.80  -6.53  -6.53  -3.93  -3.38  -3.38  -3.38
         -2.00  -2.00  -2.00  -1.89  -1.89  -1.52  -1.52  -1.52   2.75   2.75
          2.75   3.34   3.97   3.97   4.25   4.25   4.25   5.17   5.43   5.43
          5.43   6.30   6.30   6.30   6.37   6.37   6.37   7.99   7.99   8.21
          8.21   8.21   8.90   8.92   8.92   8.92  15.76  15.76  15.76  15.82
         16.24  16.24  16.46  16.46  16.46  17.21  17.21  17.21  17.87  17.87
         17.87  18.87  18.87  18.87  19.41  19.42  19.42  20.04  20.04  21.35
         27.71  27.71  27.71  29.38  29.38  29.86  29.86  29.86  46.36  46.36
         46.36  51.57  60.89  60.89  60.89  67.16  67.16  67.17  77.39  77.39
         88.74  88.74  88.74  96.11
   7  1 -15.37 -14.79 -14.79 -14.79 -12.04 -12.04 -12.04 -11.37  -7.51  -7.51
         -7.51  -6.89  -6.89  -6.89  -6.50  -6.50  -3.89  -3.26  -3.26  -3.26
         -1.91  -1.91  -1.91  -1.87  -1.87  -1.34  -1.33  -1.33   2.31   2.31
          2.31   3.22   3.62   3.62   4.24   4.24   4.24   5.00   5.39   5.39
          5.39   6.42   6.42   6.42   6.48   6.48   6.48   8.45   8.45   8.45
          8.47   8.47   8.96   9.42   9.42   9.42  15.35  15.35  15.35  15.73
         15.84  15.84  16.08  16.08  16.08  17.07  17.07  17.07  17.78  17.78
         17.78  18.63  18.63  18.63  19.47  19.47  19.47  20.21  20.21  21.84
         27.14  27.14  27.14  29.56  29.56  30.36  30.36  30.36  41.70  41.70
         41.70  47.36  57.96  57.96  57.96  66.76  66.76  66.77  76.28  76.28
         84.05  84.06  84.06  92.02
   8  1 -15.51 -14.76 -14.76 -14.76 -11.98 -11.98 -11.98 -11.10  -7.75  -7.75
         -7.75  -6.98  -6.98  -6.98  -6.46  -6.46  -3.85  -3.22  -3.22  -3.22
         -1.85  -1.85  -1.73  -1.73  -1.73  -1.12  -1.12  -1.12   1.84   1.84
          1.84   3.05   3.30   3.30   4.28   4.28   4.28   4.87   5.36   5.36
          5.36   6.55   6.55   6.55   6.59   6.59   6.59   8.61   8.61   8.61
          8.93   8.94   8.94  10.01  10.01  10.01  14.94  14.94  14.94  15.44
         15.44  15.68  15.68  15.68  15.71  16.89  16.89  16.89  17.86  17.86
         17.86  18.35  18.35  18.35  19.55  19.56  19.56  20.36  20.36  22.37
         26.50  26.50  26.50  29.75  29.75  30.93  30.93  30.93  38.00  38.00
         38.00  43.72  56.15  56.15  56.15  65.86  65.86  65.86  75.11  75.11
         81.85  81.85  81.85  88.35
   9  1 -15.66 -14.73 -14.73 -14.73 -11.92 -11.92 -11.92 -10.82  -7.99  -7.99
         -7.99  -7.08  -7.08  -7.08  -6.42  -6.42  -3.80  -3.26  -3.26  -3.26
         -1.84  -1.84  -1.47  -1.47  -1.47  -0.87  -0.87  -0.87   1.36   1.36
          1.36   2.83   3.01   3.01   4.35   4.35   4.35   4.81   5.34   5.34
          5.34   6.68   6.68   6.68   6.71   6.71   6.71   8.77   8.77   8.77
          8.82   9.38   9.38  10.62  10.62  10.62  14.54  14.54  14.54  15.06
         15.06  15.26  15.26  15.27  15.75  16.72  16.72  16.72  17.99  17.99
         17.99  18.03  18.04  18.04  19.68  19.68  19.68  20.49  20.49  22.95
         25.84  25.84  25.84  29.96  29.96  31.49  31.49  31.49  35.12  35.12
         35.12  40.75  55.23  55.23  55.23  64.57  64.57  64.57  73.98  73.98
         81.10  81.10  81.10  84.86
  10  1 -15.80 -14.69 -14.69 -14.69 -11.86 -11.86 -11.86 -10.51  -8.21  -8.21
         -8.21  -7.18  -7.18  -7.18  -6.37  -6.37  -3.75  -3.34  -3.34  -3.34
         -1.82  -1.82  -1.15  -1.15  -1.15  -0.61  -0.61  -0.61   0.88   0.88
          0.88   2.57   2.74   2.74   4.43   4.43   4.43   4.81   5.33   5.33
          5.33   6.79   6.79   6.79   6.82   6.82   6.82   8.63   8.94   8.94
          8.94   9.78   9.78  11.23  11.23  11.23  14.13  14.13  14.13  14.74
         14.74  14.85  14.85  14.85  15.84  16.58  16.58  16.58  17.69  17.69
         17.69  18.14  18.14  18.14  19.85  19.85  19.85  20.60  20.60  23.57
         25.15  25.15  25.15  30.17  30.17  31.66  31.66  31.66  33.22  33.22
         33.22  38.41  54.98  54.98  54.98  62.97  62.97  62.98  73.04  73.04
         80.94  80.95  80.95  81.40
  11  1 -15.94 -14.64 -14.64 -14.64 -11.80 -11.80 -11.80 -10.19  -8.41  -8.41
         -8.41  -7.29  -7.29  -7.29  -6.32  -6.32  -3.69  -3.44  -3.44  -3.44
         -1.82  -1.82  -0.79  -0.79  -0.79  -0.32  -0.32  -0.32   0.40   0.40
          0.40   2.28   2.51   2.51   4.52   4.52   4.52   4.85   5.32   5.32
          5.32   6.90   6.90   6.90   6.93   6.93   6.93   8.36   9.13   9.13
          9.13  10.08  10.08  11.81  11.81  11.81  13.72  13.72  13.72  14.44
         14.44  14.44  14.51  14.51  15.96  16.49  16.49  16.49  17.33  17.33
         17.33  18.28  18.28  18.28  20.05  20.05  20.05  20.68  20.68  24.22
         24.48  24.48  24.48  30.40  30.40  30.43  30.43  30.43  33.09  33.09
         33.09  36.67  55.22  55.22  55.22  61.01  61.01  61.01  72.42  72.42
         77.92  80.86  80.86  80.86
  12  1 -16.08 -14.58 -14.58 -14.58 -11.75 -11.75 -11.75  -9.86  -8.59  -8.59
         -8.59  -7.39  -7.39  -7.39  -6.26  -6.26  -3.62  -3.56  -3.56  -3.56
         -1.83  -1.83  -0.41  -0.41  -0.41  -0.07  -0.07  -0.07  -0.01  -0.01
         -0.01   1.97   2.31   2.31   4.62   4.62   4.62   4.92   5.33   5.33
          5.33   6.98   6.98   6.98   7.03   7.03   7.03   8.04   9.36   9.36
          9.36  10.24  10.24  12.36  12.36  12.36  13.31  13.31  13.31  14.03
         14.03  14.03  14.45  14.45  16.11  16.45  16.45  16.45  16.95  16.95
         16.95  18.40  18.40  18.40  20.28  20.28  20.28  20.75  20.75  23.81
         23.81  23.81  24.80  28.98  28.98  28.98  30.65  30.65  33.39  33.39
         33.39  35.50  55.82  55.82  55.82  58.57  58.57  58.57  72.25  72.25
         74.45  80.55  80.55  80.55
  13  1 -16.20 -14.52 -14.52 -14.52 -11.71 -11.71 -11.71  -9.52  -8.74  -8.74
         -8.74  -7.49  -7.49  -7.49  -6.20  -6.20  -3.68  -3.68  -3.68  -3.55
         -1.85  -1.85  -0.54  -0.54  -0.54  -0.01  -0.01  -0.01   0.31   0.31
          0.31   1.64   2.15   2.15   4.72   4.72   4.72   5.01   5.34   5.34
          5.34   7.05   7.05   7.05   7.12   7.12   7.12   7.69   9.65   9.65
          9.65  10.23  10.23  12.66  12.66  12.66  13.11  13.11  13.11  13.62
         13.62  13.62  14.57  14.57  16.27  16.46  16.46  16.46  16.58  16.58
         16.58  18.49  18.49  18.49  20.52  20.52  20.52  20.80  20.80  23.17
         23.17  23.17  25.17  27.73  27.73  27.73  30.92  30.92  33.56  33.56
         33.56  34.93  55.64  55.64  55.64  56.68  56.68  56.68  71.11  72.67
         72.67  79.94  79.94  79.94
  14  1 -16.33 -14.45 -14.45 -14.45 -11.70 -11.70 -11.70  -9.17  -8.85  -8.85
         -8.85  -7.58  -7.58  -7.58  -6.13  -6.13  -3.80  -3.80  -3.80  -3.47
         -1.89  -1.89  -1.00  -1.00  -1.00   0.40   0.40   0.40   0.65   0.65
          0.65   1.31   2.04   2.04   4.82   4.82   4.82   5.10   5.36   5.36
          5.36   7.10   7.10   7.10   7.20   7.20   7.20   7.34   9.98   9.98
          9.98  10.07  10.07  12.32  12.32  12.32  13.20  13.20  13.20  13.52
         13.52  13.52  14.86  14.86  16.23  16.23  16.23  16.44  16.50  16.50
         16.51  18.55  18.55  18.55  20.78  20.78  20.78  20.83  20.83  22.55
         22.55  22.55  25.17  26.67  26.67  26.68  31.23  31.23  33.52  33.52
         33.52  34.96  52.37  52.37  52.37  57.71  57.71  57.71  68.06  73.80
         73.80  79.05  79.05  79.05
  15  1 -16.44 -14.38 -14.38 -14.38 -11.71 -11.71 -11.71  -8.92  -8.92  -8.92
         -8.80  -7.67  -7.67  -7.67  -6.06  -6.06  -3.91  -3.91  -3.91  -3.39
         -1.95  -1.95  -1.44  -1.44  -1.44   0.82   0.82   0.82   0.97   1.00
          1.00   1.00   1.96   1.96   4.91   4.91   4.91   5.17   5.39   5.39
          5.39   7.00   7.13   7.13   7.13   7.27   7.27   7.27   9.79   9.79
         10.36  10.36  10.36  11.88  11.88  11.88  12.76  12.76  12.76  13.99
         13.99  13.99  15.28  15.28  15.91  15.91  15.91  16.57  16.58  16.58
         16.65  18.58  18.58  18.58  20.85  20.85  21.02  21.02  21.02  21.96
         21.96  21.96  24.77  25.79  25.79  25.79  31.57  31.57  33.27  33.27
         33.27  35.49  49.02  49.02  49.02  58.84  58.85  58.85  65.53  75.77
         75.77  77.97  77.97  77.97
  16  1 -16.54 -14.30 -14.30 -14.30 -11.75 -11.75 -11.75  -8.95  -8.95  -8.95
         -8.43  -7.76  -7.76  -7.76  -5.98  -5.98  -4.02  -4.02  -4.02  -3.30
         -2.02  -2.02  -1.86  -1.86  -1.86   0.62   1.24   1.24   1.24   1.36
          1.36   1.36   1.93   1.93   4.99   4.99   4.99   5.20   5.43   5.43
          5.43   6.71   7.15   7.15   7.15   7.32   7.32   7.32   9.44   9.44
         10.74  10.74  10.74  11.47  11.47  11.47  12.30  12.30  12.30  14.45
         14.45  14.45  15.64  15.64  15.64  15.77  15.77  16.67  16.67  16.67
         16.87  18.59  18.59  18.59  20.85  20.85  21.25  21.25  21.25  21.39
         21.39  21.39  24.06  25.04  25.04  25.04  31.95  31.95  32.84  32.84
         32.84  36.22  45.88  45.88  45.88  60.04  60.04  60.04  63.79  76.77
         76.77  76.77  78.73  78.73
  17  1 -16.64 -14.21 -14.21 -14.21 -11.83 -11.83 -11.83  -8.94  -8.94  -8.94
         -8.06  -7.83  -7.83  -7.83  -5.90  -5.90  -4.12  -4.12  -4.12  -3.21
         -2.27  -2.27  -2.27  -2.11  -2.11   0.26   1.67   1.67   1.67   1.73
          1.73   1.73   1.93   1.93   5.08   5.08   5.08   5.16   5.47   5.47
          5.47   6.52   7.16   7.16   7.16   7.35   7.35   7.35   9.07   9.07
         10.76  10.76  10.76  11.46  11.46  11.46  11.81  11.81  11.81  14.87
         14.87  14.87  15.43  15.43  15.43  16.30  16.30  16.77  16.78  16.78
         17.10  18.58  18.58  18.58  20.83  20.83  20.86  20.86  20.86  21.42
         21.42  21.42  23.18  24.41  24.41  24.41  32.29  32.29  32.31  32.36
         32.36  36.79  43.13  43.13  43.13  61.26  61.26  61.26  63.12  75.54
         75.54  75.54  82.84  82.84
  18  1 -16.73 -14.11 -14.11 -14.11 -11.92 -11.92 -11.92  -8.88  -8.88  -8.88
         -7.91  -7.91  -7.91  -7.68  -5.82  -5.82  -4.21  -4.21  -4.21  -3.13
         -2.66  -2.66  -2.66  -2.22  -2.22  -0.10   1.97   1.97   2.09   2.09
          2.09   2.11   2.11   2.11   5.02   5.16   5.16   5.16   5.52   5.52
          5.52   6.44   7.15   7.15   7.15   7.38   7.38   7.38   8.69   8.69
         10.36  10.36  10.36  11.30  11.30  11.30  11.88  11.89  11.89  15.24
         15.24  15.24  15.28  15.28  15.28  16.82  16.82  16.88  16.88  16.88
         17.33  18.55  18.55  18.55  20.36  20.36  20.36  20.80  20.80  21.52
         21.52  21.52  22.22  23.88  23.88  23.88  31.76  31.76  31.76  32.74
         32.74  36.92  40.86  40.86  40.86  62.46  62.47  62.47  63.78  74.31
         74.31  74.31  88.23  88.23
  19  1 -16.80 -14.01 -14.01 -14.01 -12.04 -12.04 -12.04  -8.80  -8.80  -8.80
         -7.97  -7.97  -7.97  -7.31  -5.74  -5.74  -4.29  -4.29  -4.29  -3.04
         -3.02  -3.02  -3.02  -2.32  -2.32  -0.46   2.03   2.03   2.48   2.48
          2.48   2.50   2.50   2.50   4.83   5.24   5.24   5.24   5.58   5.58
          5.58   6.44   7.15   7.15   7.15   7.39   7.39   7.39   8.31   8.31
          9.90   9.90   9.91  10.78  10.78  10.78  12.38  12.38  12.38  15.19
         15.19  15.19  15.57  15.57  15.57  16.99  16.99  16.99  17.33  17.33
         17.54  18.53  18.53  18.53  19.89  19.89  19.89  20.75  20.75  21.30
         21.51  21.51  21.51  23.43  23.43  23.43  31.31  31.31  31.31  33.13
         33.13  36.58  39.02  39.02  39.02  63.62  63.63  63.63  65.81  73.13
         73.13  73.13  95.02  95.02
  20  1 -16.87 -13.90 -13.90 -13.90 -12.18 -12.18 -12.18  -8.69  -8.69  -8.69
         -8.02  -8.02  -8.02  -6.93  -5.66  -5.66  -4.36  -4.36  -4.36  -3.36
         -3.36  -3.36  -2.96  -2.43  -2.43  -0.82   2.12   2.12   2.86   2.86
          2.86   2.90   2.91   2.91   4.65   5.33   5.33   5.33   5.64   5.64
          5.64   6.49   7.13   7.13   7.13   7.39   7.39   7.39   7.96   7.96
          9.45   9.45   9.45  10.26  10.26  10.26  12.90  12.90  12.90  15.15
         15.15  15.15  15.83  15.83  15.83  17.07  17.07  17.07  17.67  17.80
         17.80  18.50  18.50  18.50  19.46  19.46  19.46  20.51  20.69  20.69
         21.42  21.42  21.42  23.04  23.04  23.04  31.03  31.03  31.03  33.49
         33.49  35.91  37.57  37.57  37.57  64.71  64.71  64.71  69.17  72.01
         72.01  72.02 103.18 103.18
  21  1 -16.92 -13.78 -13.78 -13.78 -12.32 -12.32 -12.32  -8.58  -8.58  -8.58
         -8.07  -8.07  -8.07  -6.56  -5.58  -5.58  -4.42  -4.42  -4.42  -3.66
         -3.66  -3.66  -2.88  -2.54  -2.54  -1.18   2.22   2.22   3.22   3.22
          3.22   3.28   3.28   3.28   4.53   5.43   5.43   5.43   5.72   5.72
          5.72   6.55   7.12   7.12   7.12   7.38   7.38   7.38   7.63   7.63
          9.00   9.00   9.00   9.74   9.74   9.74  13.41  13.41  13.41  15.15
         15.15  15.15  16.02  16.02  16.02  17.13  17.13  17.13  17.63  18.24
         18.24  18.46  18.46  18.46  19.07  19.07  19.07  19.97  20.61  20.61
         21.27  21.27  21.27  22.69  22.69  22.69  30.97  30.97  30.97  33.81
         33.81  35.15  36.40  36.40  36.40  65.70  65.70  65.70  70.99  70.99
         70.99  73.93 112.49 112.49
  22  1 -16.97 -13.66 -13.66 -13.66 -12.48 -12.48 -12.48  -8.46  -8.46  -8.46
         -8.11  -8.11  -8.11  -6.21  -5.52  -5.52  -4.47  -4.47  -4.47  -3.93
         -3.93  -3.93  -2.83  -2.63  -2.63  -1.51   2.32   2.32   3.56   3.56
          3.56   3.63   3.63   3.63   4.49   5.54   5.54   5.54   5.80   5.80
          5.80   6.61   7.11   7.11   7.11   7.35   7.35   7.38   7.38   7.38
          8.56   8.56   8.56   9.23   9.23   9.23  13.92  13.92  13.92  15.19
         15.19  15.19  16.15  16.15  16.15  17.14  17.14  17.14  17.37  18.38
         18.38  18.38  18.63  18.63  18.72  18.72  18.72  19.76  20.50  20.50
         21.13  21.13  21.13  22.38  22.38  22.38  31.11  31.11  31.11  34.08
         34.08  34.52  35.45  35.45  35.45  66.56  66.56  66.56  70.08  70.08
         70.08  80.58 122.42 122.42
  23  1 -17.00 -13.52 -13.52 -13.52 -12.63 -12.63 -12.63  -8.35  -8.35  -8.35
         -8.14  -8.14  -8.14  -5.89  -5.46  -5.46  -4.51  -4.51  -4.51  -4.16
         -4.16  -4.16  -2.79  -2.72  -2.72  -1.80   2.42   2.42   3.86   3.86
          3.86   3.91   3.92   3.92   4.60   5.69   5.69   5.69   5.89   5.89
          5.89   6.67   7.10   7.10   7.11   7.11   7.11   7.40   7.40   7.40
          8.15   8.15   8.15   8.76   8.76   8.76  14.41  14.41  14.41  15.25
         15.25  15.25  16.23  16.23  16.23  17.00  17.09  17.09  17.09  18.26
         18.26  18.26  18.43  18.43  18.43  18.99  18.99  19.77  20.38  20.38
         21.07  21.07  21.07  22.10  22.10  22.10  31.41  31.41  31.41  34.18
         34.29  34.29  34.66  34.66  34.66  67.26  67.26  67.26  69.32  69.32
         69.32  90.58 132.10 132.10
  24  1 -17.02 -13.39 -13.39 -13.39 -12.79 -12.79 -12.79  -8.25  -8.25  -8.25
         -8.16  -8.16  -8.16  -5.62  -5.41  -5.41  -4.53  -4.53  -4.53  -4.33
         -4.33  -4.33  -2.79  -2.78  -2.78  -2.03   2.50   2.50   4.10   4.10
          4.10   4.13   4.13   4.13   4.85   5.86   5.86   5.86   5.98   5.98
          5.98   6.72   6.93   6.93   7.11   7.11   7.11   7.44   7.44   7.44
          7.76   7.76   7.76   8.33   8.33   8.33  14.86  14.86  14.86  15.31
         15.31  15.31  16.29  16.29  16.29  16.66  16.95  16.95  16.95  18.13
         18.13  18.13  18.21  18.21  18.21  19.30  19.30  19.86  20.23  20.23
         21.11  21.11  21.11  21.84  21.84  21.84  31.82  31.82  31.82  33.98
         33.98  33.98  34.22  34.44  34.44  67.78  67.78  67.79  68.74  68.74
         68.74 106.86 140.35 140.35
  25  1 -17.03 -13.24 -13.24 -13.24 -12.94 -12.94 -12.94  -8.20  -8.20  -8.19
         -8.18  -8.17  -8.17  -5.43  -5.38  -5.38  -4.54  -4.53  -4.53  -4.45
         -4.45  -4.45  -2.82  -2.82  -2.81  -2.17   2.55   2.55   4.25   4.25
          4.25   4.26   4.26   4.26   5.16   6.02   6.02   6.02   6.06   6.06
          6.06   6.75   6.81   6.81   7.14   7.14   7.14   7.45   7.45   7.45
          7.53   7.53   7.53   7.97   7.97   7.97  15.22  15.22  15.22  15.35
         15.35  15.35  16.36  16.36  16.36  16.43  16.72  16.72  16.72  18.04
         18.04  18.04  18.06  18.06  18.06  19.56  19.56  19.94  20.07  20.07
         21.22  21.22  21.22  21.61  21.61  21.61  32.30  32.30  32.30  33.37
         33.37  33.37  34.50  34.53  34.53  68.09  68.09  68.11  68.37  68.39
         68.39 131.12 145.96 145.96
  26  1 -17.03 -13.10 -13.10 -13.10 -13.09 -13.09 -13.09  -8.18  -8.18  -8.18
         -8.17  -8.17  -8.17  -5.37  -5.37  -5.37  -4.52  -4.52  -4.52  -4.51
         -4.51  -4.50  -2.83  -2.83  -2.83  -2.21   2.57   2.57   4.30   4.30
          4.30   4.31   4.31   4.31   5.31   6.08   6.08   6.09   6.09   6.10
          6.10   6.77   6.78   6.78   7.23   7.23   7.23   7.23   7.23   7.24
          7.70   7.70   7.70   7.71   7.71   7.71  15.36  15.36  15.37  15.37
         15.38  15.38  16.34  16.49  16.49  16.49  16.50  16.50  16.51  18.00
         18.00  18.01  18.01  18.02  18.02  19.70  19.70  19.95  19.95  19.97
         21.39  21.39  21.39  21.40  21.40  21.41  32.79  32.80  32.80  32.83
         32.83  32.84  34.56  34.56  34.67  68.16  68.16  68.22  68.25  68.31
         68.31 146.95 147.95 147.95
  27  1 -17.03 -13.34 -13.10 -13.10 -13.09 -13.09 -12.84  -8.19  -8.19  -8.19
         -8.19  -8.17  -8.17  -5.41  -5.40  -5.39  -4.57  -4.49  -4.49  -4.48
         -4.48  -4.44  -2.84  -2.80  -2.80  -2.17   2.53   2.57   4.24   4.24
          4.27   4.27   4.28   4.28   5.17   5.98   5.98   6.00   6.00   6.16
          6.16   6.78   6.78   6.82   6.98   7.30   7.31   7.31   7.31   7.34
          7.46   7.77   7.77   7.78   7.78   8.08  15.27  15.27  15.29  15.29
         15.31  15.31  16.17  16.42  16.57  16.57  16.58  16.58  16.79  18.00
         18.00  18.01  18.01  18.13  18.13  19.51  19.67  19.91  19.92  20.18
         21.12  21.40  21.40  21.41  21.41  21.76  31.98  32.80  32.80  32.83
         32.83  33.76  34.31  34.38  34.88  68.13  68.14  68.24  68.26  68.33
         68.34 136.73 142.72 143.32
  28  1 -17.02 -13.58 -13.09 -13.09 -13.09 -13.09 -12.58  -8.23  -8.23  -8.23
         -8.23  -8.16  -8.16  -5.52  -5.46  -5.45  -4.62  -4.42  -4.42  -4.40
         -4.40  -4.36  -2.87  -2.72  -2.72  -2.07   2.42   2.59   4.07   4.07
          4.16   4.16   4.16   4.16   4.85   5.78   5.78   5.79   5.79   6.34
          6.34   6.70   6.79   6.79   6.96   7.00   7.40   7.40   7.41   7.41
          7.66   8.02   8.02   8.03   8.03   8.46  15.01  15.01  15.12  15.12
         15.13  15.13  15.83  16.64  16.76  16.76  16.78  16.78  17.02  17.99
         17.99  17.99  17.99  18.42  18.42  19.25  19.58  19.78  19.79  20.50
         20.96  21.41  21.41  21.42  21.42  22.18  31.24  32.82  32.82  32.85
         32.85  33.61  33.68  34.82  35.76  67.95  67.97  68.38  68.38  68.47
         68.47 116.25 131.54 132.03
  29  1 -17.00 -13.82 -13.09 -13.09 -13.08 -13.08 -12.32  -8.30  -8.30  -8.29
         -8.29  -8.14  -8.13  -5.69  -5.56  -5.55  -4.65  -4.29  -4.29  -4.28
         -4.28  -4.26  -2.93  -2.60  -2.60  -1.91   2.25   2.62   3.84   3.84
          3.96   3.96   3.97   3.97   4.56   5.58   5.58   5.59   5.59   6.41
          6.59   6.59   6.67   6.81   6.81   7.18   7.45   7.45   7.45   7.45
          7.83   8.40   8.40   8.41   8.41   8.87  14.66  14.66  14.90  14.90
         14.92  14.92  15.47  16.99  17.01  17.01  17.02  17.02  17.16  17.95
         17.95  17.96  17.96  18.83  18.84  19.00  19.42  19.55  19.56  20.83
         20.96  21.43  21.43  21.44  21.44  22.63  30.59  32.59  32.65  32.90
         32.90  32.93  32.93  36.02  37.39  67.65  67.67  68.63  68.63  68.71
         68.71  98.89 118.66 119.01
  30  1 -16.97 -14.05 -13.08 -13.08 -13.07 -13.07 -12.05  -8.38  -8.38  -8.37
         -8.37  -8.11  -8.10  -5.90  -5.68  -5.67  -4.67  -4.16  -4.13  -4.13
         -4.11  -4.11  -3.00  -2.44  -2.44  -1.73   2.04   2.66   3.57   3.57
          3.68   3.68   3.69   3.69   4.38   5.43   5.43   5.45   5.45   6.10
          6.35   6.84   6.85   6.88   6.88   7.45   7.47   7.47   7.48   7.48
          7.96   8.85   8.85   8.86   8.86   9.28  14.27  14.27  14.67  14.67
         14.69  14.69  15.10  17.21  17.27  17.27  17.28  17.28  17.47  17.89
         17.89  17.90  17.90  18.75  19.20  19.23  19.23  19.31  19.32  21.13
         21.14  21.46  21.46  21.47  21.47  23.11  30.02  31.41  31.46  33.12
         33.12  33.16  33.16  37.37  40.01  67.28  67.30  69.00  69.00  69.08
[...]
         10.58  11.01  11.11  11.35  11.46  11.79  12.10  12.40  13.04  13.32
         14.04  14.21  14.48  14.52  14.69  15.54  15.88  16.16  16.40  17.04
         17.65  17.76  18.62  18.81  19.44  20.63  21.72  22.27  22.68  23.13
         23.29  23.61  24.59  24.97  26.12  26.36  31.65  36.13  37.49  39.59
         41.48  50.13  52.04  53.54  55.29  64.19  64.46  64.53  66.80  70.90
         76.14  86.86  94.09  95.34
  93  1 -16.06 -15.41 -14.29 -13.96 -12.12 -11.75 -10.35  -9.48  -9.35  -9.18
         -8.18  -7.94  -7.75  -7.51  -7.27  -6.37  -3.21  -3.17  -2.76  -2.11
         -2.00  -1.60  -1.58  -0.84  -0.83  -0.63  -0.37  -0.28   0.62   0.69
          1.26   2.05   2.08   2.08   2.72   3.55   4.03   4.04   4.67   5.69
          5.81   5.85   7.71   7.84   8.34   8.47   9.03   9.40   9.50  10.25
         10.58  11.02  11.11  11.35  11.46  11.78  12.11  12.41  13.04  13.33
         14.04  14.22  14.48  14.51  14.69  15.52  15.87  16.17  16.41  17.04
         17.65  17.76  18.62  18.81  19.43  20.63  21.72  22.28  22.68  23.12
         23.29  23.61  24.60  24.96  26.12  26.34  31.60  36.11  37.49  39.63
         41.42  50.18  52.10  53.60  55.30  64.15  64.43  64.54  66.76  70.90
         76.07  86.84  94.04  95.36
  94  1 -15.86 -15.24 -14.36 -14.36 -12.02 -12.02 -10.99 -10.19  -8.78  -8.78
         -7.79  -7.49  -7.49  -7.19  -6.69  -6.67  -3.32  -3.19  -2.96  -2.96
         -2.08  -1.42  -1.42  -1.28  -1.21  -0.47  -0.24   0.48   0.49   0.69
          0.94   0.94   2.90   2.90   3.29   3.41   5.00   5.11   5.16   5.48
          5.50   5.50   6.50   6.50   7.29   8.33   8.94   9.16   9.16   9.21
          9.49   9.49  11.11  11.43  11.43  11.83  13.15  13.36  13.51  13.51
         13.58  14.60  15.01  15.01  16.08  16.08  16.34  16.45  17.21  17.37
         17.37  17.93  17.93  19.12  19.24  19.24  20.74  21.88  21.99  23.68
         24.47  24.47  25.13  27.01  27.56  27.56  31.82  32.75  35.23  35.23
         41.07  48.91  54.53  54.54  57.65  59.70  63.55  65.49  65.49  68.34
         83.88  87.97  87.98  94.26
  95  1 -15.47 -14.94 -14.94 -14.60 -12.03 -11.64 -11.64 -11.01  -8.32  -7.91
         -7.91  -7.22  -6.97  -6.93  -6.92  -6.39  -3.32  -3.19  -2.86  -2.86
         -2.08  -2.08  -1.77  -1.72  -1.30  -0.94  -0.82  -0.82   1.45   1.45
          2.19   2.41   2.60   3.23   3.59   4.05   4.05   4.42   4.42   4.77
          5.23   7.04   7.04   7.17   7.17   7.82   8.12   8.63   8.94   8.94
          8.99   9.33   9.37  10.10  10.55  10.55  13.86  14.09  14.09  15.07
         15.07  15.13  15.48  15.64  15.79  15.99  16.42  16.42  17.59  18.36
         18.36  18.39  18.93  18.93  19.36  19.66  20.46  20.46  21.10  21.55
         26.85  26.96  26.96  28.35  28.63  32.16  32.16  34.23  38.73  39.68
         39.68  45.84  54.82  54.83  58.47  59.14  60.72  73.13  73.13  78.39
         84.36  84.37  84.99 104.94
  96  1 -15.47 -14.95 -14.94 -14.60 -12.03 -11.65 -11.64 -11.02  -8.32  -7.92
         -7.91  -7.22  -6.96  -6.94  -6.92  -6.39  -3.31  -3.18  -2.87  -2.86
         -2.09  -2.08  -1.77  -1.72  -1.31  -0.94  -0.83  -0.82   1.43   1.44
          2.20   2.41   2.59   3.24   3.60   4.05   4.06   4.42   4.43   4.77
          5.22   7.04   7.06   7.18   7.19   7.82   8.12   8.64   8.94   8.94
          8.98   9.33   9.36  10.09  10.53  10.55  13.85  14.10  14.10  15.06
         15.08  15.12  15.47  15.62  15.78  15.99  16.43  16.45  17.60  18.34
         18.36  18.40  18.93  18.94  19.36  19.67  20.46  20.47  21.10  21.53
         26.86  26.95  26.98  28.37  28.63  32.16  32.18  34.24  38.75  39.66
         39.72  45.87  54.70  54.85  58.53  59.17  60.83  73.17  73.18  78.36
         84.38  84.41  84.97 105.41
  97  1 -15.47 -14.94 -14.94 -14.60 -12.03 -11.64 -11.64 -11.02  -8.33  -7.92
         -7.91  -7.21  -6.97  -6.92  -6.92  -6.39  -3.31  -3.19  -2.86  -2.86
         -2.08  -2.08  -1.77  -1.72  -1.31  -0.95  -0.82  -0.82   1.43   1.43
          2.19   2.41   2.60   3.24   3.60   4.06   4.06   4.43   4.43   4.78
          5.23   7.05   7.05   7.18   7.18   7.82   8.12   8.65   8.95   8.95
          8.99   9.32   9.37  10.08  10.53  10.53  13.84  14.09  14.09  15.06
         15.06  15.13  15.47  15.64  15.79  16.00  16.44  16.44  17.60  18.36
         18.36  18.40  18.93  18.93  19.36  19.67  20.47  20.47  21.10  21.54
         26.84  26.97  26.97  28.39  28.61  32.19  32.19  34.24  38.73  39.71
         39.71  45.82  54.88  54.88  58.50  59.13  60.78  73.17  73.17  78.44
         84.45  84.45  84.95 105.22
  98  1 -15.64 -15.04 -15.04 -14.53 -11.63 -11.01 -11.01 -10.22  -9.28  -8.80
         -8.80  -8.21  -7.09  -7.01  -7.01  -6.32  -3.30  -2.69  -2.42  -2.42
         -1.73  -1.73  -1.40  -1.17  -0.11  -0.11  -0.09   0.08   0.44   0.44
          0.70   1.23   1.73   2.15   2.48   2.74   2.74   4.24   4.24   5.37
          5.77   7.64   7.64   8.18   8.74   8.74   9.38   9.68   9.89  10.02
         10.02  10.70  11.10  11.71  11.71  12.02  12.72  12.86  12.87  12.89
         13.47  13.76  13.76  14.41  14.90  15.13  15.13  15.54  17.40  18.17
         18.17  19.20  19.81  19.93  19.94  20.41  21.51  21.51  21.75  22.31
         25.58  25.58  25.98  25.98  27.61  35.98  35.98  40.34  42.72  42.72
         48.74  52.06  52.06  53.15  57.95  59.60  60.68  68.75  68.75  78.64
         79.13  81.29  81.29  97.35
  99  1 -15.64 -15.04 -15.04 -14.53 -11.63 -11.01 -11.01 -10.22  -9.28  -8.80
         -8.80  -8.22  -7.09  -7.01  -7.01  -6.32  -3.30  -2.69  -2.42  -2.42
         -1.74  -1.74  -1.40  -1.17  -0.10  -0.10  -0.09   0.09   0.45   0.45
          0.71   1.24   1.72   2.15   2.48   2.73   2.73   4.24   4.24   5.37
          5.77   7.64   7.64   8.17   8.73   8.73   9.38   9.69   9.90  10.00
         10.01  10.69  11.08  11.72  11.72  12.03  12.72  12.88  12.88  12.89
         13.48  13.76  13.77  14.41  14.90  15.11  15.11  15.53  17.40  18.17
         18.17  19.19  19.80  19.94  19.94  20.41  21.50  21.50  21.75  22.32
         25.59  25.59  25.98  25.98  27.59  35.97  35.97  40.34  42.67  42.67
         48.72  52.11  52.11  53.13  57.91  59.56  60.76  68.64  68.65  78.65
         79.11  81.25  81.26  97.38
 100  1 -15.47 -14.94 -14.94 -14.60 -12.03 -11.64 -11.64 -11.01  -8.32  -7.91
         -7.91  -7.22  -6.97  -6.93  -6.92  -6.39  -3.32  -3.19  -2.86  -2.86
         -2.08  -2.08  -1.77  -1.72  -1.30  -0.94  -0.82  -0.82   1.45   1.45
          2.19   2.41   2.60   3.23   3.59   4.05   4.05   4.42   4.42   4.77
          5.23   7.04   7.04   7.17   7.17   7.82   8.12   8.63   8.94   8.94
          8.99   9.33   9.37  10.10  10.55  10.55  13.86  14.09  14.09  15.07
         15.07  15.13  15.48  15.64  15.79  15.99  16.42  16.42  17.59  18.36
         18.36  18.39  18.93  18.93  19.36  19.66  20.46  20.46  21.10  21.55
         26.85  26.96  26.96  28.35  28.63  32.16  32.16  34.23  38.73  39.68
         39.68  45.84  54.82  54.83  58.47  59.14  60.72  73.13  73.13  78.39
         84.36  84.37  84.99 104.94
 101  1 -15.17 -14.82 -14.82 -14.82 -12.11 -12.11 -12.11 -11.72  -7.16  -7.16
         -7.16  -6.76  -6.76  -6.76  -6.54  -6.54  -3.94  -3.46  -3.46  -3.46
         -2.01  -2.01  -2.01  -1.90  -1.90  -1.61  -1.61  -1.61   2.94   2.95
          2.95   3.38   4.15   4.15   4.29   4.29   4.29   5.28   5.45   5.45
          5.45   6.24   6.24   6.24   6.32   6.32   6.32   7.75   7.75   8.03
          8.03   8.03   8.74   8.74   8.74   8.85  15.88  15.94  15.94  15.94
         16.43  16.43  16.64  16.64  16.64  17.24  17.24  17.24  18.01  18.01
         18.01  18.98  18.98  18.98  19.40  19.40  19.40  19.95  19.95  21.12
         27.96  27.96  27.96  29.30  29.30  29.65  29.65  29.65  49.12  49.12
         49.12  53.81  62.84  62.84  62.84  67.20  67.20  67.21  77.89  77.89
         92.28  92.28  92.29  98.42
 102  1 -15.17 -14.83 -14.82 -14.81 -12.11 -12.11 -12.10 -11.72  -7.18  -7.17
         -7.16  -6.76  -6.76  -6.76  -6.54  -6.54  -3.94  -3.47  -3.46  -3.46
         -2.02  -2.01  -2.01  -1.90  -1.90  -1.61  -1.61  -1.60   2.92   2.93
          2.94   3.39   4.14   4.15   4.29   4.29   4.30   5.28   5.46   5.46
          5.46   6.24   6.25   6.25   6.32   6.33   6.34   7.73   7.74   8.01
          8.02   8.04   8.73   8.73   8.74   8.84  15.87  15.94  15.94  15.95
         16.42  16.43  16.62  16.63  16.64  17.25  17.26  17.26  18.01  18.01
         18.03  18.97  18.97  18.97  19.39  19.41  19.42  19.95  19.96  21.10
         27.96  27.98  27.98  29.31  29.32  29.62  29.64  29.65  49.04  49.15
         49.16  53.81  62.72  62.94  62.98  67.10  67.14  67.22  78.12  78.34
         92.24  92.32  92.42  98.53
 103  1 -15.47 -14.95 -14.94 -14.60 -12.03 -11.65 -11.64 -11.02  -8.32  -7.92
         -7.91  -7.22  -6.96  -6.94  -6.92  -6.39  -3.31  -3.18  -2.87  -2.86
         -2.09  -2.08  -1.77  -1.72  -1.31  -0.94  -0.83  -0.82   1.43   1.44
          2.20   2.41   2.59   3.24   3.60   4.05   4.06   4.42   4.43   4.77
          5.22   7.04   7.06   7.18   7.19   7.82   8.12   8.64   8.94   8.94
          8.98   9.33   9.36  10.09  10.53  10.55  13.85  14.10  14.10  15.06
         15.08  15.12  15.47  15.62  15.78  15.99  16.43  16.45  17.60  18.34
         18.36  18.40  18.93  18.94  19.36  19.67  20.46  20.47  21.10  21.53
         26.86  26.95  26.98  28.37  28.63  32.16  32.18  34.24  38.75  39.66
         39.72  45.87  54.70  54.85  58.53  59.17  60.83  73.17  73.18  78.36
         84.38  84.41  84.97 105.41
 104  1 -15.64 -15.04 -15.03 -14.53 -11.63 -11.01 -11.01 -10.22  -9.28  -8.80
         -8.80  -8.22  -7.08  -7.03  -7.01  -6.32  -3.30  -2.68  -2.44  -2.42
         -1.74  -1.74  -1.40  -1.16  -0.11  -0.10  -0.09   0.09   0.44   0.44
          0.71   1.24   1.73   2.15   2.47   2.73   2.74   4.25   4.26   5.36
          5.75   7.65   7.66   8.18   8.72   8.74   9.37   9.69   9.90  10.01
         10.02  10.69  11.09  11.72  11.72  12.02  12.72  12.87  12.88  12.89
         13.47  13.76  13.78  14.39  14.90  15.12  15.14  15.53  17.39  18.15
         18.18  19.21  19.81  19.93  19.94  20.41  21.50  21.51  21.76  22.31
         25.59  25.60  25.96  25.98  27.61  35.96  35.99  40.37  42.65  42.69
         48.82  51.98  52.03  53.11  58.02  59.58  60.69  68.70  68.78  78.64
         79.08  81.26  81.34  97.34
 105  1 -15.64 -15.04 -15.03 -14.53 -11.63 -11.01 -11.01 -10.22  -9.28  -8.80
         -8.80  -8.22  -7.08  -7.03  -7.01  -6.32  -3.30  -2.68  -2.44  -2.42
         -1.74  -1.74  -1.40  -1.16  -0.11  -0.10  -0.09   0.09   0.44   0.44
          0.71   1.24   1.73   2.15   2.47   2.73   2.74   4.25   4.26   5.36
          5.75   7.65   7.66   8.18   8.72   8.74   9.37   9.69   9.90  10.01
         10.02  10.69  11.09  11.72  11.72  12.02  12.72  12.87  12.88  12.89
         13.47  13.76  13.78  14.39  14.90  15.12  15.14  15.53  17.39  18.15
         18.18  19.21  19.81  19.93  19.94  20.41  21.50  21.51  21.76  22.31
         25.59  25.60  25.96  25.98  27.61  35.96  35.99  40.37  42.65  42.69
         48.82  51.98  52.03  53.11  58.02  59.58  60.69  68.70  68.78  78.64
         79.08  81.26  81.34  97.34
 106  1 -15.47 -14.95 -14.94 -14.60 -12.03 -11.65 -11.64 -11.02  -8.32  -7.92
         -7.91  -7.22  -6.96  -6.94  -6.92  -6.39  -3.31  -3.18  -2.87  -2.86
         -2.09  -2.08  -1.77  -1.72  -1.31  -0.94  -0.83  -0.82   1.43   1.44
          2.20   2.41   2.59   3.24   3.60   4.05   4.06   4.42   4.43   4.77
          5.22   7.04   7.06   7.18   7.19   7.82   8.12   8.64   8.94   8.94
          8.98   9.33   9.36  10.09  10.53  10.55  13.85  14.10  14.10  15.06
         15.08  15.12  15.47  15.62  15.78  15.99  16.43  16.45  17.60  18.34
         18.36  18.40  18.93  18.94  19.36  19.67  20.46  20.47  21.10  21.53
         26.86  26.95  26.98  28.37  28.63  32.16  32.18  34.24  38.75  39.66
         39.72  45.87  54.70  54.85  58.53  59.17  60.83  73.17  73.18  78.36
         84.38  84.41  84.97 105.41
 107  1 -15.17 -14.83 -14.82 -14.81 -12.11 -12.11 -12.10 -11.72  -7.18  -7.17
         -7.16  -6.76  -6.76  -6.76  -6.54  -6.54  -3.94  -3.47  -3.46  -3.46
         -2.02  -2.01  -2.01  -1.90  -1.90  -1.61  -1.61  -1.60   2.92   2.93
          2.94   3.39   4.14   4.15   4.29   4.29   4.30   5.28   5.46   5.46
          5.46   6.24   6.25   6.25   6.32   6.33   6.34   7.73   7.74   8.01
          8.02   8.04   8.73   8.73   8.74   8.84  15.87  15.94  15.94  15.95
         16.42  16.43  16.62  16.63  16.64  17.25  17.26  17.26  18.01  18.01
         18.03  18.97  18.97  18.97  19.39  19.41  19.42  19.95  19.96  21.10
         27.96  27.98  27.98  29.31  29.32  29.62  29.64  29.65  49.04  49.15
         49.16  53.81  62.72  62.94  62.98  67.10  67.14  67.22  78.12  78.34
         92.24  92.32  92.42  98.53
 108  1 -15.17 -14.83 -14.82 -14.81 -12.11 -12.11 -12.10 -11.72  -7.18  -7.17
         -7.16  -6.76  -6.76  -6.76  -6.54  -6.54  -3.94  -3.47  -3.46  -3.46
         -2.02  -2.01  -2.01  -1.90  -1.90  -1.61  -1.61  -1.60   2.92   2.93
          2.94   3.39   4.14   4.15   4.29   4.29   4.30   5.28   5.46   5.46
          5.46   6.24   6.25   6.25   6.32   6.33   6.34   7.73   7.74   8.01
          8.02   8.04   8.73   8.73   8.74   8.84  15.87  15.94  15.94  15.95
         16.42  16.43  16.62  16.63  16.64  17.25  17.26  17.26  18.01  18.01
         18.03  18.97  18.97  18.97  19.39  19.41  19.42  19.95  19.96  21.10
         27.96  27.98  27.98  29.31  29.32  29.62  29.64  29.65  49.04  49.15
         49.16  53.81  62.72  62.94  62.98  67.10  67.14  67.22  78.12  78.34
         92.24  92.32  92.42  98.53
siesta: Fermi energy =      -4.992808 eV

siesta: Program's energy decomposition (eV):
siesta: Ebs     =      -331.665693
siesta: Eions   =      1510.441798
siesta: Ena     =       471.325948
siesta: Ekin    =       319.287220
siesta: Enl     =       127.075277
siesta: DEna    =         6.608867
siesta: DUscf   =         1.520121
siesta: DUext   =         0.000000
siesta: Exc     =      -446.031729
siesta: eta*DQ  =         0.000000
siesta: Emadel  =         0.000000
siesta: Emeta   =         0.000000
siesta: Emolmec =         0.000000
siesta: Ekinion =         0.000000
siesta: Eharris =     -1030.656598
siesta: Etot    =     -1030.656093
siesta: FreeEng =     -1030.656093

siesta: Final energy (eV):
siesta:  Band Struct. =    -331.665693
siesta:       Kinetic =     319.287220
siesta:       Hartree =      59.920061
siesta:    Ext. field =       0.000000
siesta:   Exch.-corr. =    -446.031729
siesta:  Ion-electron =    -421.922674
siesta:       Ion-ion =    -541.908972
siesta:       Ekinion =       0.000000
siesta:         Total =   -1030.656093

siesta: Stress tensor (static) (eV/Ang**3):
siesta:     0.000317   -0.000094   -0.000094
siesta:    -0.000094    0.000317   -0.000094
siesta:    -0.000094   -0.000094    0.000317

siesta: Constrained stress tensor (static) (eV/Ang**3):
siesta:     0.000317   -0.000094   -0.000094
siesta:    -0.000094    0.000317   -0.000094
siesta:    -0.000094   -0.000094    0.000317

siesta: Cell volume =        168.136249 Ang**3

siesta: Pressure (static):
siesta:                Solid            Molecule  Units
siesta:          -0.00000345         -0.00001490  Ry/Bohr**3
siesta:          -0.00031654         -0.00136809  eV/Ang**3
siesta:          -0.50716536         -2.19194260  kBar
(Free)E+ p_basis*V_orbitals  =       -1021.718363
(Free)Eharris+ p_basis*V_orbitals  =       -1021.719012

* Maximum dynamic memory allocated : Node    0 =   218 MB

* Maximum memory occured during poison                        

timer: CPU execution times:
timer:  Routine       Calls   Time/call    Tot.time        %
timer:  siesta            1    1436.611    1436.611   100.00
timer:  Setup             1       0.177       0.177     0.01
timer:  bands             3       0.510       1.529     0.11
timer:  writewave         3       0.011       0.032     0.00
timer:  KSV_init          1       0.001       0.001     0.00
timer:  IterMD            8     179.351    1434.807    99.87
timer:  hsparse           8       0.204       1.635     0.11
timer:  overlap           8       0.135       1.084     0.08
timer:  IterSCF          37      29.252    1082.338    75.34
timer:  kinefsm          16       0.135       2.168     0.15
timer:  nlefsm           16       3.509      56.140     3.91
timer:  DHSCF            45      25.326    1139.689    79.33
timer:  DHSCF1            8       0.172       1.374     0.10
timer:  DHSCF2            8      11.633      93.067     6.48
timer:  REORD           286       0.001       0.157     0.01
timer:  POISON           53       0.023       1.229     0.09
timer:  DHSCF3           45      19.559     880.150    61.27
timer:  rhoofd           45       9.912     446.021    31.05
timer:  cellXC           45       0.671      30.215     2.10
timer:  vmat             45       8.941     402.339    28.01
timer:  MolMec           16       0.000       0.000     0.00
timer:  diagon           37       6.239     230.843    16.07
timer:  c-eigval       4097       0.015      62.819     4.37
timer:  c-buildHS      4097       0.009      37.890     2.64
timer:  cdiag          8094       0.009      72.658     5.06
timer:  cdiag1         8094       0.001       6.300     0.44
timer:  cdiag2         8094       0.002      19.994     1.39
timer:  cdiag3         8094       0.006      44.955     3.13
timer:  cdiag4         8094       0.000       0.980     0.07
timer:  c-eigvec       3997       0.021      85.015     5.92
timer:  c-buildD       3996       0.021      84.286     5.87
timer:  DHSCF4            8      20.630     165.039    11.49
timer:  dfscf             8      17.666     141.325     9.84
timer:  overfsm           8       0.121       0.966     0.07
timer:  optical           1       0.000       0.000     0.00
  

elaps: ELAPSED times:
elaps:  Routine       Calls   Time/call    Tot.time        %
elaps:  siesta            1    1441.638    1441.638   100.00
elaps:  Setup             1       0.201       0.201     0.01
elaps:  bands             3       0.510       1.529     0.11
elaps:  writewave         3       0.011       0.032     0.00
elaps:  KSV_init          1       0.001       0.001     0.00
elaps:  IterMD            8     179.972    1439.775    99.87
elaps:  hsparse           8       0.204       1.635     0.11
elaps:  overlap           8       0.135       1.084     0.08
elaps:  IterSCF          37      29.367    1086.595    75.37
elaps:  kinefsm          16       0.136       2.169     0.15
elaps:  nlefsm           16       3.511      56.169     3.90
elaps:  DHSCF            45      25.407    1143.324    79.31
elaps:  DHSCF1            8       0.172       1.377     0.10
elaps:  DHSCF2            8      11.978      95.822     6.65
elaps:  REORD           286       0.001       0.158     0.01
elaps:  POISON           53       0.023       1.230     0.09
elaps:  DHSCF3           45      19.576     880.909    61.10
elaps:  rhoofd           45       9.922     446.470    30.97
elaps:  cellXC           45       0.672      30.225     2.10
elaps:  vmat             45       8.947     402.627    27.93
elaps:  MolMec           16       0.000       0.000     0.00
elaps:  diagon           37       6.250     231.233    16.04
elaps:  c-eigval       4097       0.015      63.133     4.38
elaps:  c-buildHS      4097       0.009      38.226     2.65
elaps:  cdiag          8094       0.009      72.647     5.04
elaps:  cdiag1         8094       0.001       6.308     0.44
elaps:  cdiag2         8094       0.002      20.011     1.39
elaps:  cdiag3         8094       0.006      44.989     3.12
elaps:  cdiag4         8094       0.000       0.983     0.07
elaps:  c-eigvec       3997       0.021      85.046     5.90
elaps:  c-buildD       3996       0.021      84.347     5.85
elaps:  DHSCF4            8      20.640     165.117    11.45
elaps:  dfscf             8      17.671     141.364     9.81
elaps:  overfsm           8       0.121       0.966     0.07
elaps:  optical           1       0.000       0.000     0.00
  
>> End of run:  13-MAY-2013  11:17:33
