Siesta Version:                                        siesta-3.2
Architecture  : x86_64-unknown-linux-gnu--unknown
Compiler flags: f95 -g -O2
SERIAL version

* Running in serial mode
Siesta Version:                                        siesta-3.2
Architecture  : x86_64-unknown-linux-gnu--unknown
Compiler flags: f95 -g -O2
SERIAL version

* Running in serial mode
>> Start of run:   9-MAY-2013  19:37:53

                           ***********************       
                           *  WELCOME TO SIESTA  *       
                           ***********************       

reinit: Reading from standard input
************************** Dump of input data file ****************************
# FDF for silicon
SystemName             silicon          # Descriptive name of the system
SystemLabel            si          # Short name for naming files
NumberOfAtoms 8
NumberOfSpecies 1
%block ChemicalSpeciesLabel
1 14 Si
%endblock ChemicalSpeciesLabel
LatticeConstant  5.00 Ang
##Basis set Definition##
PAO.BasisType          split        # Type of PAO basis set
PAO.EnergyShift        50 meV
PAO.BasisSize          DZP          # (DZP) Double-z + polarization
#%block LatticeVectors
#0.500 0.500 0.000
#0.500 0.000 0.500
#0.000 0.500 0.500
#%endblock LatticeVectors
AtomicCoordinatesFormat NotScaledCartesianAng
%block AtomicCoordinatesAndAtomicSpecies
	0.00000000	0.00000000	0.00000000  1 Si  1
	1.36000000	1.36000000	1.36000000  1 Si  2
	2.72000000	2.72000000	0.00000000  1 Si  3
	4.08000000	4.08000000	1.36000000  1 Si  4
	2.72000000	0.00000000	2.72000000  1 Si  5
	4.08000000	1.36000000	4.08000000  1 Si  6
	0.00000000	2.72000000	2.72000000  1 Si  7
	1.36000000	4.08000000	4.08000000  1 Si  8
%endblock AtomicCoordinatesAndAtomicSpecies
MeshCutoff 100.0 Ry # 100, 120, 180, 260
kgrid_cutoff 30.0 Bohr # 30, 35, 40, 45
DM.Mixingweight  0.3
DM.NumberPulay    3
DM.Tolerance      1.d-3
DM.UseSaveDM      true
ElectronicTemperature 25 meV
SolutionMethod    diagon
XC.functional     LDA	    # Local Density Approximation
XC.authors        CA           # Ceperley-Alder
SpinPolarized     false
MD.TypeOfRun           CG           # Type of dynamics:
MD.VariableCell        true
MD.NumCGsteps          100          # Number of CG steps for coordinate optimization
MD.MaxCGDispl          0.2 Bohr     # Maximum atomic displacement
                                    #   in one CG step (Bohr)
MD.MaxForceTol         0.04 eV/Ang  # Tolerance in the maximum
                                    #   atomic force (Ry/Bohr)
				
##Output Specification##
WriteMDhistory         true         # Trajectory information
WriteCoorStep          true
WriteCoorXmol          true
WriteMDXmol            true
WriteEigenvalues true
WriteKbands      true
WriteBands       true
WriteWaveFunctions true
WriteMullikenPoP   1
%block BandLines
1	1.000	1.000 1.000 L
25	0.000	0.000	0.000 \Gamma
30	2.000	0.000	0.000 X
10	2.000	0.500	0.500 U
35	0.000	0.000	0.000 \Gamma
%endblock BandLines
%block WaveFuncKPoints
0.0 0.0 0.0 from 1 to 50 # > 16 = 4/2*8 (Valenzelektronen/2, Atomzahl ...)
%endblock WaveFuncKpoints
************************** End of input data file *****************************

reinit: -----------------------------------------------------------------------
reinit: System Name: silicon
reinit: -----------------------------------------------------------------------
reinit: System Label: si                                                          
reinit: -----------------------------------------------------------------------
>> Start of run:   9-MAY-2013  19:37:53

                           ***********************       
                           *  WELCOME TO SIESTA  *       
                           ***********************       

reinit: Reading from standard input
************************** Dump of input data file ****************************
************************** End of input data file *****************************

reinit: -----------------------------------------------------------------------
reinit: System Name: 
reinit: -----------------------------------------------------------------------
reinit: System Label: siesta                                                      
reinit: -----------------------------------------------------------------------

initatom: Reading input for the pseudopotentials and atomic orbitals ----------

initatom: Reading input for the pseudopotentials and atomic orbitals ----------
 Species number:            1  Label: Si Atomic number:          14
Ground state valence configuration:   3s02  3p02
Reading pseudopotential information in formatted form from Si.psf

Valence configuration for pseudopotential generation:
3s( 2.00) rc: 1.75
3p( 2.00) rc: 1.94
3d( 0.00) rc: 2.09
4f( 0.00) rc: 2.09
 Species number:            1  Label: Si Atomic number:          14
Ground state valence configuration:   3s02  3p02
Reading pseudopotential information in formatted form from Si.psf

Valence configuration for pseudopotential generation:
3s( 2.00) rc: 1.75
3p( 2.00) rc: 1.94
3d( 0.00) rc: 2.09
4f( 0.00) rc: 2.09
For Si, standard SIESTA heuristics set lmxkb to 3
 (one more than the basis l, including polarization orbitals).
Use PS.lmax or PS.KBprojectors blocks to override.
For Si, standard SIESTA heuristics set lmxkb to 3
 (one more than the basis l, including polarization orbitals).
Use PS.lmax or PS.KBprojectors blocks to override.

<basis_specs>
===============================================================================
Si                   Z=  14    Mass=  28.090        Charge= 0.17977+309
Lmxo=1 Lmxkb= 3    BasisType=split      Semic=F
L=0  Nsemic=0  Cnfigmx=3
          n=1  nzeta=2  polorb=0
            splnorm:   0.15000    
               vcte:    0.0000    
               rinn:    0.0000    
                rcs:    0.0000      0.0000    
            lambdas:    1.0000      1.0000    
L=1  Nsemic=0  Cnfigmx=3
          n=1  nzeta=2  polorb=1
            splnorm:   0.15000    
               vcte:    0.0000    
               rinn:    0.0000    
                rcs:    0.0000      0.0000    
            lambdas:    1.0000      1.0000    
-------------------------------------------------------------------------------
L=0  Nkbl=1  erefs: 0.17977+309
L=1  Nkbl=1  erefs: 0.17977+309
L=2  Nkbl=1  erefs: 0.17977+309
L=3  Nkbl=1  erefs: 0.17977+309
===============================================================================
</basis_specs>

atom: Called for Si                    (Z =  14)

read_vps: Pseudopotential generation method:
read_vps: ATM3      Troullier-Martins                       
Total valence charge:    4.00000

xc_check: Exchange-correlation functional:
xc_check: Ceperley-Alder
V l=0 = -2*Zval/r beyond r=  2.5494
V l=1 = -2*Zval/r beyond r=  2.5494
V l=2 = -2*Zval/r beyond r=  2.5494
V l=3 = -2*Zval/r beyond r=  2.5494
All V_l potentials equal beyond r=  2.0613
This should be close to max(r_c) in ps generation
All pots = -2*Zval/r beyond r=  2.5494

VLOCAL1: 99.0% of the norm of Vloc inside     10.216 Ry
VLOCAL1: 99.9% of the norm of Vloc inside     23.282 Ry
atom: Maximum radius for 4*pi*r*r*local-pseudopot. charge    2.45560
atom: Maximum radius for r*vlocal+2*Zval:    2.14012

<basis_specs>
===============================================================================
Si                   Z=  14    Mass=  28.090        Charge= 0.17977+309
Lmxo=1 Lmxkb= 3    BasisType=split      Semic=F
L=0  Nsemic=0  Cnfigmx=3
          n=1  nzeta=2  polorb=0
            splnorm:   0.15000    
               vcte:    0.0000    
               rinn:    0.0000    
                rcs:    0.0000      0.0000    
            lambdas:    1.0000      1.0000    
L=1  Nsemic=0  Cnfigmx=3
          n=1  nzeta=2  polorb=1
            splnorm:   0.15000    
               vcte:    0.0000    
               rinn:    0.0000    
                rcs:    0.0000      0.0000    
            lambdas:    1.0000      1.0000    
-------------------------------------------------------------------------------
L=0  Nkbl=1  erefs: 0.17977+309
L=1  Nkbl=1  erefs: 0.17977+309
L=2  Nkbl=1  erefs: 0.17977+309
L=3  Nkbl=1  erefs: 0.17977+309
===============================================================================
</basis_specs>

atom: Called for Si                    (Z =  14)

read_vps: Pseudopotential generation method:
read_vps: ATM3      Troullier-Martins                       
Total valence charge:    4.00000

xc_check: Exchange-correlation functional:
xc_check: Ceperley-Alder
V l=0 = -2*Zval/r beyond r=  2.5494
V l=1 = -2*Zval/r beyond r=  2.5494
V l=2 = -2*Zval/r beyond r=  2.5494
V l=3 = -2*Zval/r beyond r=  2.5494
All V_l potentials equal beyond r=  2.0613
This should be close to max(r_c) in ps generation
All pots = -2*Zval/r beyond r=  2.5494

VLOCAL1: 99.0% of the norm of Vloc inside     10.216 Ry
VLOCAL1: 99.9% of the norm of Vloc inside     23.282 Ry
atom: Maximum radius for 4*pi*r*r*local-pseudopot. charge    2.45560
atom: Maximum radius for r*vlocal+2*Zval:    2.14012
GHOST: No ghost state for L =  0
GHOST: No ghost state for L =  0
GHOST: No ghost state for L =  1
GHOST: No ghost state for L =  1
GHOST: No ghost state for L =  2
GHOST: No ghost state for L =  2
GHOST: No ghost state for L =  3
GHOST: No ghost state for L =  3

KBgen: Kleinman-Bylander projectors: 
   l= 0   rc=  2.782581   el= -0.796617   Ekb=  4.840502   kbcos=  0.288423
   l= 1   rc=  2.888916   el= -0.307040   Ekb=  1.512733   kbcos=  0.296968
   l= 2   rc=  2.962054   el=  0.002313   Ekb= -2.156507   kbcos= -0.061834
   l= 3   rc=  3.192765   el=  0.003402   Ekb= -0.600958   kbcos= -0.007408

KBgen: Total number of  Kleinman-Bylander projectors:   16
atom: -------------------------------------------------------------------------

atom: SANKEY-TYPE ORBITALS:
atom: Selected multiple-zeta basis: split     

KBgen: Kleinman-Bylander projectors: 
   l= 0   rc=  2.782581   el= -0.796617   Ekb=  4.840502   kbcos=  0.288423
   l= 1   rc=  2.888916   el= -0.307040   Ekb=  1.512733   kbcos=  0.296968
   l= 2   rc=  2.962054   el=  0.002313   Ekb= -2.156507   kbcos= -0.061834
   l= 3   rc=  3.192765   el=  0.003402   Ekb= -0.600958   kbcos= -0.007408

KBgen: Total number of  Kleinman-Bylander projectors:   16
atom: -------------------------------------------------------------------------

atom: SANKEY-TYPE ORBITALS:
atom: Selected multiple-zeta basis: split     

SPLIT: Orbitals with angular momentum L= 0

SPLIT: Orbitals with angular momentum L= 0

SPLIT: Basis orbitals for state 3s

SPLIT: Basis orbitals for state 3s

SPLIT: PAO cut-off radius determined from an
SPLIT: energy shift=  0.003675 Ry

SPLIT: PAO cut-off radius determined from an
SPLIT: energy shift=  0.003675 Ry

   izeta = 1
                 lambda =    1.000000
                     rc =    6.116033
                 energy =   -0.793486

                kinetic =    0.528761
    potential(screened) =   -1.322246
   izeta = 1
                 lambda =    1.000000
       potential(ionic) =   -3.766038
                     rc =    6.116033
                 energy =   -0.793486
                kinetic =    0.528761
    potential(screened) =   -1.322246
       potential(ionic) =   -3.766038

   izeta = 2
                 rmatch =    4.530823
              splitnorm =    0.150000
                 energy =   -0.697320
                kinetic =    0.853435
    potential(screened) =   -1.550756
       potential(ionic) =   -4.120809

   izeta = 2
                 rmatch =    4.530823
              splitnorm =    0.150000
                 energy =   -0.697320
                kinetic =    0.853435
    potential(screened) =   -1.550756
       potential(ionic) =   -4.120809

SPLIT: Orbitals with angular momentum L= 1

SPLIT: Basis orbitals for state 3p

SPLIT: PAO cut-off radius determined from an
SPLIT: energy shift=  0.003675 Ry

SPLIT: Orbitals with angular momentum L= 1

SPLIT: Basis orbitals for state 3p

SPLIT: PAO cut-off radius determined from an
SPLIT: energy shift=  0.003675 Ry

   izeta = 1
                 lambda =    1.000000
                     rc =    7.853192
                 energy =   -0.303674
                kinetic =    0.798475
    potential(screened) =   -1.102149
       potential(ionic) =   -3.307324

   izeta = 1
                 lambda =    1.000000
                     rc =    7.853192
                 energy =   -0.303674
                kinetic =    0.798475
    potential(screened) =   -1.102149
       potential(ionic) =   -3.307324

   izeta = 2
                 rmatch =    5.397360
              splitnorm =    0.150000
                 energy =   -0.229357
                kinetic =    1.170483
    potential(screened) =   -1.399841
       potential(ionic) =   -3.814095

   izeta = 2
                 rmatch =    5.397360
              splitnorm =    0.150000
                 energy =   -0.229357
                kinetic =    1.170483
    potential(screened) =   -1.399841
       potential(ionic) =   -3.814095

POLgen: Perturbative polarization orbital with L=  2

POLgen: Polarization orbital for state 3p

POLgen: Perturbative polarization orbital with L=  2

POLgen: Polarization orbital for state 3p

   izeta = 1
                     rc =    7.853192
                 energy =    0.331669
                kinetic =    1.088595
    potential(screened) =   -0.756926
       potential(ionic) =   -2.714870
atom: Total number of Sankey-type orbitals: 13

atm_pop: Valence configuration (for local Pseudopot. screening):
 3s( 2.00)                                                            
 3p( 2.00)                                                            
Vna: chval, zval:    4.00000   4.00000

Vna:  Cut-off radius for the neutral-atom potential:   7.853192

   izeta = 1
                     rc =    7.853192
                 energy =    0.331669
                kinetic =    1.088595
    potential(screened) =   -0.756926
       potential(ionic) =   -2.714870

atom: _________________________________________________________________________

prinput: Basis input ----------------------------------------------------------

PAO.BasisType split     

%block ChemicalSpeciesLabel
    1   14 Si                      # Species index, atomic number, species label
%endblock ChemicalSpeciesLabel

%block PAO.Basis                 # Define Basis set
Si                    2                    # Species label, number of l-shells
 n=3   0   2                         # n, l, Nzeta 
   6.116      4.531   
   1.000      1.000   
 n=3   1   2 P   1                   # n, l, Nzeta, Polarization, NzetaPol
   7.853      5.397   
   1.000      1.000   
%endblock PAO.Basis

prinput: ----------------------------------------------------------------------

atom: Total number of Sankey-type orbitals: 13

atm_pop: Valence configuration (for local Pseudopot. screening):
 3s( 2.00)                                                            
 3p( 2.00)                                                            
Vna: chval, zval:    4.00000   4.00000

Vna:  Cut-off radius for the neutral-atom potential:   7.853192

atom: _________________________________________________________________________

prinput: Basis input ----------------------------------------------------------

PAO.BasisType split     

%block ChemicalSpeciesLabel
    1   14 Si                      # Species index, atomic number, species label
%endblock ChemicalSpeciesLabel

%block PAO.Basis                 # Define Basis set
Si                    2                    # Species label, number of l-shells
 n=3   0   2                         # n, l, Nzeta 
   6.116      4.531   
   1.000      1.000   
 n=3   1   2 P   1                   # n, l, Nzeta, Polarization, NzetaPol
   7.853      5.397   
   1.000      1.000   
%endblock PAO.Basis

prinput: ----------------------------------------------------------------------

coor:   Atomic-coordinates input format  =     Cartesian coordinates
coor:                                          (in Angstroms)

siesta: Atomic coordinates (Bohr) and species
siesta:      0.00000   0.00000   0.00000  1        1
siesta:      2.57003   2.57003   2.57003  1        2
siesta:      5.14006   5.14006   0.00000  1        3
siesta:      7.71009   7.71009   2.57003  1        4
siesta:      5.14006   0.00000   5.14006  1        5
siesta:      7.71009   2.57003   7.71009  1        6
siesta:      0.00000   5.14006   5.14006  1        7
siesta:      2.57003   7.71009   7.71009  1        8

siesta: System type = bulk      
coor:   Atomic-coordinates input format  =     Cartesian coordinates
coor:                                          (in Angstroms)

initatomlists: Number of atoms, orbitals, and projectors:      8   104   128

siesta: ******************** Simulation parameters ****************************
siesta:
siesta: The following are some of the parameters of the simulation.
siesta: A complete list of the parameters used, including default values,
siesta: can be found in file out.fdf
siesta:
redata: Non-Collinear-spin run           =     F
redata: SpinPolarized (Up/Down) run      =     F
redata: Number of spin components        =     1
redata: Long output                      =     F
redata: Number of Atomic Species         =        1
redata: Charge density info will appear in .RHO file
redata: Write Mulliken Pop.              =     Atomic and Orbital charges

siesta: Atomic coordinates (Bohr) and species
siesta:      0.00000   0.00000   0.00000  1        1
siesta:      2.57003   2.57003   2.57003  1        2
siesta:      5.14006   5.14006   0.00000  1        3
siesta:      7.71009   7.71009   2.57003  1        4
siesta:      5.14006   0.00000   5.14006  1        5
siesta:      7.71009   2.57003   7.71009  1        6
siesta:      0.00000   5.14006   5.14006  1        7
siesta:      2.57003   7.71009   7.71009  1        8
redata: Mesh Cutoff                      =   100.0000  Ry

siesta: System type = bulk      
redata: Net charge of the system         =     0.0000 |e|
redata: Max. number of SCF Iter          =       50
redata: Performing Pulay mixing using    =     3 iterations

redata: Mix DM in first SCF step ?       =     F
initatomlists: Number of atoms, orbitals, and projectors:      8   104   128
redata: Write Pulay info on disk?        =     F

siesta: ******************** Simulation parameters ****************************
siesta:
siesta: The following are some of the parameters of the simulation.
siesta: A complete list of the parameters used, including default values,
siesta: can be found in file out.fdf
siesta:
redata: Non-Collinear-spin run           =     F
redata: SpinPolarized (Up/Down) run      =     F
redata: Number of spin components        =     1
redata: Discard 1st Pulay DM after  kick =     F
redata: New DM Mixing Weight             =     0.3000
redata: Long output                      =     F
redata: Number of Atomic Species         =        1
redata: New DM Occupancy tolerance       = 0.000000000001
redata: Charge density info will appear in .RHO file
redata: Write Mulliken Pop.              =     Atomic and Orbital charges
redata: No kicks to SCF
redata: DM Mixing Weight for Kicks       =     0.5000
redata: DM Tolerance for SCF             =     0.001000
redata: Mesh Cutoff                      =   100.0000  Ry
redata: Require Energy convergence for SCF =     F
redata: Net charge of the system         =     0.0000 |e|
redata: DM Energy tolerance for SCF      =     0.000100 eV
redata: Max. number of SCF Iter          =       50
redata: Require Harris convergence for SCF =     F
redata: DM Harris energy tolerance for SCF =     0.000100 eV
redata: Performing Pulay mixing using    =     3 iterations
redata: Using Saved Data (generic)   =     F
redata: Use continuation files for DM    =     T
redata: Mix DM in first SCF step ?       =     F
redata: Neglect nonoverlap interactions  =     F
redata: Write Pulay info on disk?        =     F
redata: Discard 1st Pulay DM after  kick =     F
redata: New DM Mixing Weight             =     0.3000
redata: Method of Calculation            =     Diagonalization
redata: Divide and Conquer               =     T
redata: New DM Occupancy tolerance       = 0.000000000001
redata: No kicks to SCF
redata: Electronic Temperature           =     0.0018  Ry
redata: DM Mixing Weight for Kicks       =     0.5000
redata: Fix the spin of the system       =     F
redata: DM Tolerance for SCF             =     0.001000
redata: Require Energy convergence for SCF =     F
redata: DM Energy tolerance for SCF      =     0.000100 eV
redata: Require Harris convergence for SCF =     F
redata: DM Harris energy tolerance for SCF =     0.000100 eV
redata: Using Saved Data (generic)   =     F
redata: Use continuation files for DM    =     T
redata: Neglect nonoverlap interactions  =     F
redata: Method of Calculation            =     Diagonalization
redata: Divide and Conquer               =     T
redata: Electronic Temperature           =     0.0018  Ry
redata: Fix the spin of the system       =     F
redata: Dynamics option                  =     CG coord. optimization
redata: Variable cell                    =     T
redata: Use continuation files for CG    =     F
redata: Max atomic displ per move        =     0.2000  Bohr
redata: Maximum number of CG moves       =      100
redata: Force tolerance                  =     0.0016  Ry/Bohr
redata: Stress tolerance                 =     1.0000  GPa
redata: Dynamics option                  =     CG coord. optimization
redata: Variable cell                    =     T
redata: Use continuation files for CG    =     F
redata: Max atomic displ per move        =     0.2000  Bohr
redata: Maximum number of CG moves       =      100
redata: Force tolerance                  =     0.0016  Ry/Bohr
redata: Stress tolerance                 =     1.0000  GPa
redata: ***********************************************************************
redata: ***********************************************************************
Total number of electrons:    32.000000
Total ionic charge:    32.000000
Total number of electrons:    32.000000
Total ionic charge:    32.000000
 Kpoints in:          196 . Kpoints trimmed:          172
 Kpoints in:          196 . Kpoints trimmed:          172

siesta: k-grid: Number of k-points =   172
siesta: k-grid: Cutoff (effective) =    17.500 Ang
siesta: k-grid: Supercell and displacements
siesta: k-grid:    0   7   0      0.000
siesta: k-grid:    0   0   7      0.000
siesta: k-grid:    7   0   0      0.000

siesta: k-grid: Number of k-points =   172
siesta: k-grid: Cutoff (effective) =    17.500 Ang
siesta: k-grid: Supercell and displacements
siesta: k-grid:    0   7   0      0.000
siesta: k-grid:    0   0   7      0.000
siesta: k-grid:    7   0   0      0.000
Naive supercell factors:     5    5    5

superc: Internal auxiliary supercell:     5 x     5 x     5  =     125
superc: Number of atoms, orbitals, and projectors:   1000  13000  16000

* Maximum dynamic memory allocated =     2 MB

siesta:                 ==============================
                            Begin CG move =      0
                        ==============================

outcoor: Atomic coordinates (Ang):                          
    0.00000000    0.00000000    0.00000000   1       1  Si
    1.36000000    1.36000000    1.36000000   1       2  Si
    2.72000000    2.72000000    0.00000000   1       3  Si
    4.08000000    4.08000000    1.36000000   1       4  Si
    2.72000000    0.00000000    2.72000000   1       5  Si
    4.08000000    1.36000000    4.08000000   1       6  Si
    0.00000000    2.72000000    2.72000000   1       7  Si
    1.36000000    4.08000000    4.08000000   1       8  Si
Naive supercell factors:     5    5    5

superc: Internal auxiliary supercell:     5 x     5 x     5  =     125
superc: Number of atoms, orbitals, and projectors:   1000  13000  16000

outcell: Unit cell vectors (Ang):
        5.000000    0.000000    0.000000
        0.000000    5.000000    0.000000
        0.000000    0.000000    5.000000

outcell: Cell vector modules (Ang)   :    5.000000    5.000000    5.000000
outcell: Cell angles (23,13,12) (deg):     90.0000     90.0000     90.0000
outcell: Cell volume (Ang**3)        :    125.0000

superc: Internal auxiliary supercell:     5 x     5 x     5  =     125
superc: Number of atoms, orbitals, and projectors:   1000  13000  16000

* Maximum dynamic memory allocated =     2 MB

siesta:                 ==============================
                            Begin CG move =      0
                        ==============================

outcoor: Atomic coordinates (Ang):                          
    0.00000000    0.00000000    0.00000000   1       1  Si
    1.36000000    1.36000000    1.36000000   1       2  Si
    2.72000000    2.72000000    0.00000000   1       3  Si
    4.08000000    4.08000000    1.36000000   1       4  Si
    2.72000000    0.00000000    2.72000000   1       5  Si
    4.08000000    1.36000000    4.08000000   1       6  Si
    0.00000000    2.72000000    2.72000000   1       7  Si
    1.36000000    4.08000000    4.08000000   1       8  Si

superc: Internal auxiliary supercell:     5 x     5 x     5  =     125
superc: Number of atoms, orbitals, and projectors:   1000  13000  16000

outcell: Unit cell vectors (Ang):
        5.000000    0.000000    0.000000
        0.000000    5.000000    0.000000
        0.000000    0.000000    5.000000

outcell: Cell vector modules (Ang)   :    5.000000    5.000000    5.000000
outcell: Cell angles (23,13,12) (deg):     90.0000     90.0000     90.0000
outcell: Cell volume (Ang**3)        :    125.0000
New_DM. Step:     1
Initializing Density Matrix...

iodm: Reading Density Matrix from files
New_DM. Step:     1
Initializing Density Matrix...

iodm: Reading Density Matrix from files
 Read DM has different structure. Fixing...

InitMesh: MESH =    32 x    32 x    32 =       32768
InitMesh: Mesh cutoff (required, used) =   100.000   113.204 Ry

InitMesh: MESH =    32 x    32 x    32 =       32768
InitMesh: Mesh cutoff (required, used) =   100.000   113.204 Ry

* Maximum dynamic memory allocated =    87 MB

* Maximum dynamic memory allocated =    84 MB

stepf: Fermi-Dirac step function

stepf: Fermi-Dirac step function

siesta: Program's energy decomposition (eV):
siesta: Ebs     =      -386.613923
siesta: Eions   =      1510.441798
siesta: Ena     =       447.263066
siesta: Ekin    =       363.677034
siesta: Enl     =       121.971066
siesta: DEna    =        -2.671261
siesta: DUscf   =         1.792780
siesta: DUext   =         0.000000
siesta: Exc     =      -274.715696
siesta: eta*DQ  =         0.000000
siesta: Emadel  =         0.000000
siesta: Emeta   =         0.000000
siesta: Emolmec =         0.000000
siesta: Ekinion =         0.000000
siesta: Eharris =      -853.101700
siesta: Etot    =      -853.124809
siesta: FreeEng =      -853.124809

siesta: iscf   Eharris(eV)      E_KS(eV)   FreeEng(eV)   dDmax  Ef(eV)
siesta:    1     -853.1017     -853.1248     -853.1248  0.0015 -6.0795
timer: Routine,Calls,Time,% = IterSCF        1      35.330  97.86
elaps: Routine,Calls,Wall,% = IterSCF        1      35.664  97.87

siesta: Program's energy decomposition (eV):
siesta: Ebs     =      -386.230008
siesta: Eions   =      1510.441798
siesta: Ena     =       447.263066
siesta: Ekin    =       361.644655
siesta: Enl     =       122.884285
siesta: DEna    =        -2.921556
siesta: DUscf   =         1.797074
siesta: DUext   =         0.000000
siesta: Exc     =      -274.694119
siesta: eta*DQ  =         0.000000
siesta: Emadel  =         0.000000
siesta: Emeta   =         0.000000
siesta: Emolmec =         0.000000
siesta: Ekinion =         0.000000
siesta: Eharris =      -853.143671
siesta: Etot    =      -854.468393
siesta: FreeEng =      -854.468393

siesta: iscf   Eharris(eV)      E_KS(eV)   FreeEng(eV)   dDmax  Ef(eV)
siesta:    1     -853.1437     -854.4684     -854.4684  0.0902 -6.0439
timer: Routine,Calls,Time,% = IterSCF        1      35.766  97.87
elaps: Routine,Calls,Wall,% = IterSCF        1      36.062  97.86
siesta:    2     -853.2775     -853.0205     -853.0242  0.0673 -6.1372
siesta:    2     -853.1017     -853.1017     -853.1053  0.0001 -6.0793
siesta:    3     -853.1019     -853.2748     -853.2783  0.0141 -6.0831

siesta: E_KS(eV) =             -853.1025

siesta: E_KS - E_eggbox =      -853.1025

siesta: Atomic forces (eV/Ang):
----------------------------------------
   Tot    0.000637    0.000637    0.000665
----------------------------------------
   Max    5.345548
   Res    3.592387    sqrt( Sum f_i^2 / 3N )
----------------------------------------
   Max    5.345548    constrained

Stress-tensor-Voigt (kbar):     -466.18     -466.18     -466.18      160.58      160.58      160.58
(Free)E + p*V (eV/cell)     -816.7355
Target enthalpy (eV/cell)     -853.1061

siesta: Stress tensor (static) (eV/Ang**3):
        -0.290965    0.100224    0.100224
         0.100224   -0.290965    0.100224
         0.100224    0.100224   -0.290965

siesta: Pressure (static):        466.18265582  kBar

siesta: Stress tensor (total) (eV/Ang**3):
        -0.290965    0.100224    0.100224
         0.100224   -0.290965    0.100224
         0.100224    0.100224   -0.290965

siesta: Pressure (total):        466.18265582  kBar

mulliken: Mulliken Atomic and Orbital Populations:

Species: Si                  
Atom  Qatom  Qorb
               3s      3s      3py     3pz     3px     3py     3pz     3px     
               3Pdxy   3Pdyz   3Pdz2   3Pdxz   3Pdx2-y2
   1  4.399   0.173   0.877   0.106   0.106   0.106   0.689   0.689   0.689
              0.199   0.199   0.184   0.199   0.184
   2  3.786   0.642   0.598   0.031   0.031   0.031   0.619   0.619   0.619
              0.142   0.142   0.084   0.142   0.084
   3  3.877   0.505   0.656  -0.029   0.078  -0.029   0.688   0.633   0.688
              0.168   0.153   0.091   0.153   0.121
   4  4.062   0.362   0.737   0.044  -0.060   0.044   0.698   0.751   0.698
              0.169   0.173   0.163   0.173   0.112
   5  3.877   0.505   0.656   0.078  -0.029  -0.029   0.633   0.688   0.688
              0.153   0.153   0.114   0.168   0.099
   6  4.062   0.362   0.737  -0.060   0.044   0.044   0.751   0.698   0.698
              0.173   0.173   0.125   0.169   0.150
   7  3.877   0.505   0.656  -0.029  -0.029   0.078   0.688   0.688   0.633
              0.153   0.168   0.114   0.153   0.099
   8  4.062   0.362   0.737   0.044   0.044  -0.060   0.698   0.698   0.751
              0.173   0.169   0.125   0.173   0.150

mulliken: Qtot =       32.000

cgvc: No target stress found, assuming hydrostatic MD.TargetPressure.

cgvc: Target stress (kBar)
cgvc:        -0.000       0.000       0.000
cgvc:         0.000      -0.000       0.000
cgvc:         0.000       0.000      -0.000

* Maximum dynamic memory allocated =    89 MB

siesta:                 ==============================
                            Begin CG move =      1
                        ==============================

outcoor: Atomic coordinates (Ang):                          
    0.01601038    0.01601040    0.01601040   1       1  Si
    1.36601363    1.36601363    1.36601360   1       2  Si
    2.72906524    2.72906525    0.00351256   1       3  Si
    4.06958844    4.06958844    1.37257167   1       4  Si
    2.72906528    0.00351254    2.72906530   1       5  Si
    4.06958845    1.37257168    4.06958849   1       6  Si
    0.00351252    2.72906527    2.72906531   1       7  Si
    1.37257169    4.06958843    4.06958849   1       8  Si
 Kpoints in:          196 . Kpoints trimmed:          172

siesta: k-grid: Number of k-points =   172
siesta: k-grid: Cutoff (effective) =    17.622 Ang
siesta: k-grid: Supercell and displacements
siesta: k-grid:    0   7   0      0.000
siesta: k-grid:    0   0   7      0.000
siesta: k-grid:    7   0   0      0.000
Naive supercell factors:     5    5    5

superc: Internal auxiliary supercell:     5 x     5 x     5  =     125
superc: Number of atoms, orbitals, and projectors:   1000  13000  16000

outcell: Unit cell vectors (Ang):
        5.034875   -0.012013   -0.012013
       -0.012013    5.034875   -0.012013
       -0.012013   -0.012013    5.034875

outcell: Cell vector modules (Ang)   :    5.034904    5.034904    5.034904
outcell: Cell angles (23,13,12) (deg):     90.2731     90.2731     90.2731
outcell: Cell volume (Ang**3)        :    127.6317
New_DM. Step:     2
Re-using DM from previous geometry...
Re-using DM without extrapolation (not allowed)
Density Matrix sparsity pattern changed.

InitMesh: MESH =    32 x    32 x    32 =       32768
InitMesh: Mesh cutoff (required, used) =   100.000   111.645 Ry
siesta:    4     -853.1019     -853.1025     -853.1061  0.0018 -6.0820

siesta: iscf   Eharris(eV)      E_KS(eV)   FreeEng(eV)   dDmax  Ef(eV)
siesta:    1     -855.2899     -853.8448     -853.8485  0.0952 -6.0500
siesta:    5     -853.1018     -853.0907     -853.0943  0.0012 -6.0805
siesta:    2     -855.3011     -855.2731     -855.2755  0.0193 -6.0151
siesta:    6     -853.1017     -853.0962     -853.0998  0.0002 -6.0792
siesta:    3     -855.2829     -855.2516     -855.2542  0.0021 -6.0315

siesta: E_KS(eV) =             -853.0983

siesta: E_KS - E_eggbox =      -853.0983

siesta: Atomic forces (eV/Ang):
----------------------------------------
   Tot    0.000643    0.000646    0.000672
----------------------------------------
   Max    5.346712
   Res    3.593459    sqrt( Sum f_i^2 / 3N )
----------------------------------------
   Max    5.346712    constrained

Stress-tensor-Voigt (kbar):     -466.20     -466.20     -466.20      160.61      160.61      160.61
(Free)E + p*V (eV/cell)     -816.7297
Target enthalpy (eV/cell)     -853.1019

siesta: Stress tensor (static) (eV/Ang**3):
        -0.290978    0.100247    0.100247
         0.100247   -0.290978    0.100247
         0.100247    0.100247   -0.290978

siesta: Pressure (static):        466.20275674  kBar

siesta: Stress tensor (total) (eV/Ang**3):
        -0.290978    0.100247    0.100247
         0.100247   -0.290978    0.100247
         0.100247    0.100247   -0.290978

siesta: Pressure (total):        466.20275674  kBar

mulliken: Mulliken Atomic and Orbital Populations:

Species: Si                  
Atom  Qatom  Qorb
               3s      3s      3py     3pz     3px     3py     3pz     3px     
               3Pdxy   3Pdyz   3Pdz2   3Pdxz   3Pdx2-y2
   1  4.398   0.173   0.877   0.106   0.106   0.106   0.688   0.688   0.688
              0.199   0.199   0.184   0.199   0.184
   2  3.786   0.642   0.598   0.031   0.031   0.031   0.619   0.619   0.619
              0.142   0.142   0.084   0.142   0.084
   3  3.877   0.505   0.656  -0.029   0.078  -0.029   0.688   0.633   0.688
              0.168   0.153   0.091   0.153   0.121
   4  4.061   0.361   0.737   0.044  -0.060   0.044   0.698   0.751   0.698
              0.169   0.173   0.163   0.173   0.112
   5  3.877   0.505   0.656   0.078  -0.029  -0.029   0.633   0.688   0.688
              0.153   0.153   0.114   0.168   0.099
   6  4.061   0.361   0.737  -0.060   0.044   0.044   0.751   0.698   0.698
              0.173   0.173   0.125   0.169   0.150
   7  3.877   0.505   0.656  -0.029  -0.029   0.078   0.688   0.688   0.633
              0.153   0.168   0.114   0.153   0.099
   8  4.061   0.361   0.737   0.044   0.044  -0.060   0.698   0.698   0.751
              0.173   0.169   0.125   0.173   0.150

mulliken: Qtot =       32.000

cgvc: No target stress found, assuming hydrostatic MD.TargetPressure.

cgvc: Target stress (kBar)
cgvc:        -0.000       0.000       0.000
cgvc:         0.000      -0.000       0.000
cgvc:         0.000       0.000      -0.000

* Maximum dynamic memory allocated =    85 MB

siesta:                 ==============================
                            Begin CG move =      1
                        ==============================

outcoor: Atomic coordinates (Ang):                          
    0.01600548    0.01600549    0.01600547   1       1  Si
    1.36602074    1.36602074    1.36602073   1       2  Si
    2.72905553    2.72905554    0.00351198   1       3  Si
    4.06958329    4.06958326    1.37257931   1       4  Si
    2.72905557    0.00351194    2.72905561   1       5  Si
    4.06958333    1.37257925    4.06958329   1       6  Si
    0.00351192    2.72905557    2.72905561   1       7  Si
    1.37257923    4.06958333    4.06958330   1       8  Si
 Kpoints in:          196 . Kpoints trimmed:          172

siesta: k-grid: Number of k-points =   172
siesta: k-grid: Cutoff (effective) =    17.622 Ang
siesta: k-grid: Supercell and displacements
siesta: k-grid:    0   7   0      0.000
siesta: k-grid:    0   0   7      0.000
siesta: k-grid:    7   0   0      0.000
Naive supercell factors:     5    5    5

superc: Internal auxiliary supercell:     5 x     5 x     5  =     125
superc: Number of atoms, orbitals, and projectors:   1000  13000  16000

outcell: Unit cell vectors (Ang):
        5.034869   -0.012013   -0.012013
       -0.012013    5.034869   -0.012013
       -0.012013   -0.012013    5.034869

outcell: Cell vector modules (Ang)   :    5.034898    5.034898    5.034898
outcell: Cell angles (23,13,12) (deg):     90.2731     90.2731     90.2731
outcell: Cell volume (Ang**3)        :    127.6313
New_DM. Step:     2
Re-using DM from previous geometry...
Re-using DM without extrapolation (not allowed)
Density Matrix sparsity pattern changed.

InitMesh: MESH =    32 x    32 x    32 =       32768
InitMesh: Mesh cutoff (required, used) =   100.000   111.645 Ry
siesta:    4     -855.2827     -855.2609     -855.2635  0.0010 -6.0340
siesta:    5     -855.2827     -855.2751     -855.2778  0.0004 -6.0353

siesta: iscf   Eharris(eV)      E_KS(eV)   FreeEng(eV)   dDmax  Ef(eV)
siesta:    1     -855.2898     -853.8407     -853.8443  0.0952 -6.0499

siesta: E_KS(eV) =             -855.2783

siesta: Atomic forces (eV/Ang):
----------------------------------------
   Tot    0.004373    0.004379    0.004364
----------------------------------------
   Max    4.117667
   Res    2.797160    sqrt( Sum f_i^2 / 3N )
----------------------------------------
   Max    4.117667    constrained

Stress-tensor-Voigt (kbar):     -394.40     -394.40     -394.40      120.60      120.60      120.60
(Free)E + p*V (eV/cell)     -823.8627
Target enthalpy (eV/cell)     -855.2809

siesta: Stress tensor (static) (eV/Ang**3):
        -0.246163    0.075273    0.075273
         0.075273   -0.246163    0.075273
         0.075273    0.075273   -0.246163

siesta: Pressure (static):        394.40093165  kBar

siesta: Stress tensor (total) (eV/Ang**3):
        -0.246163    0.075273    0.075273
         0.075273   -0.246163    0.075273
         0.075273    0.075273   -0.246163

siesta: Pressure (total):        394.40093165  kBar

mulliken: Mulliken Atomic and Orbital Populations:

Species: Si                  
Atom  Qatom  Qorb
               3s      3s      3py     3pz     3px     3py     3pz     3px     
               3Pdxy   3Pdyz   3Pdz2   3Pdxz   3Pdx2-y2
   1  4.266   0.232   0.822   0.054   0.054   0.054   0.718   0.718   0.718
              0.190   0.190   0.162   0.190   0.162
   2  3.826   0.651   0.587   0.054   0.054   0.054   0.614   0.614   0.614
              0.140   0.140   0.083   0.140   0.083
   3  3.912   0.514   0.647  -0.000   0.093  -0.000   0.678   0.628   0.678
              0.164   0.151   0.091   0.151   0.117
   4  4.057   0.383   0.719   0.058  -0.061   0.058   0.688   0.754   0.688
              0.165   0.172   0.154   0.172   0.108
   5  3.912   0.514   0.647   0.093  -0.000  -0.000   0.628   0.678   0.678
              0.151   0.151   0.110   0.164   0.098
   6  4.057   0.383   0.719  -0.061   0.058   0.058   0.754   0.688   0.688
              0.172   0.172   0.120   0.165   0.143
   7  3.912   0.514   0.647  -0.000  -0.000   0.093   0.678   0.678   0.628
              0.151   0.164   0.110   0.151   0.098
   8  4.057   0.383   0.719   0.058   0.058  -0.061   0.688   0.688   0.754
              0.172   0.165   0.120   0.172   0.143

mulliken: Qtot =       32.000

* Maximum dynamic memory allocated =    89 MB

siesta:                 ==============================
                            Begin CG move =      2
                        ==============================

outcoor: Atomic coordinates (Ang):                          
    0.04177120    0.04177125    0.04177126   1       1  Si
    1.37566302    1.37566302    1.37566294   1       2  Si
    2.74334209    2.74334213    0.00967632   1       3  Si
    4.05221847    4.05221847    1.39384891   1       4  Si
    2.74334221    0.00967627    2.74334227   1       5  Si
    4.05221848    1.39384895    4.05221861   1       6  Si
    0.00967623    2.74334218    2.74334228   1       7  Si
    1.39384897    4.05221845    4.05221858   1       8  Si
 Kpoints in:          196 . Kpoints trimmed:          172

siesta: k-grid: Number of k-points =   172
siesta: k-grid: Cutoff (effective) =    17.818 Ang
siesta: k-grid: Supercell and displacements
siesta: k-grid:    0   7   0      0.000
siesta: k-grid:    0   0   7      0.000
siesta: k-grid:    7   0   0      0.000
Naive supercell factors:     5    5    5

superc: Internal auxiliary supercell:     5 x     5 x     5  =     125
superc: Number of atoms, orbitals, and projectors:   1000  13000  16000

outcell: Unit cell vectors (Ang):
        5.090675   -0.031233   -0.031233
       -0.031233    5.090675   -0.031233
       -0.031233   -0.031233    5.090675

outcell: Cell vector modules (Ang)   :    5.090867    5.090867    5.090867
outcell: Cell angles (23,13,12) (deg):     90.7009     90.7009     90.7009
outcell: Cell volume (Ang**3)        :    131.9097
siesta:    2     -855.3011     -855.2731     -855.2755  0.0194 -6.0151
New_DM. Step:     3
Re-using DM from previous geometry...
Re-using DM without extrapolation (not allowed)
Density Matrix sparsity pattern changed.

InitMesh: MESH =    32 x    32 x    32 =       32768
InitMesh: Mesh cutoff (required, used) =   100.000   109.232 Ry
siesta:    3     -855.2829     -855.2515     -855.2541  0.0021 -6.0315

siesta: iscf   Eharris(eV)      E_KS(eV)   FreeEng(eV)   dDmax  Ef(eV)
siesta:    1     -857.8884     -855.7668     -855.7694  0.1091 -5.9388
siesta:    4     -855.2827     -855.2608     -855.2635  0.0010 -6.0340
siesta:    2     -857.9623     -857.8081     -857.8095  0.0517 -5.8662
siesta:    5     -855.2827     -855.2751     -855.2778  0.0004 -6.0352
siesta:    3     -857.8604     -857.7253     -857.7268  0.0071 -5.9081

siesta: E_KS(eV) =             -855.2783

siesta: Atomic forces (eV/Ang):
----------------------------------------
   Tot    0.004342    0.004353    0.004338
----------------------------------------
   Max    4.117602
   Res    2.797101    sqrt( Sum f_i^2 / 3N )
----------------------------------------
   Max    4.117602    constrained

Stress-tensor-Voigt (kbar):     -394.41     -394.41     -394.41      120.61      120.61      120.61
(Free)E + p*V (eV/cell)     -823.8621
Target enthalpy (eV/cell)     -855.2809

siesta: Stress tensor (static) (eV/Ang**3):
        -0.246169    0.075277    0.075277
         0.075277   -0.246169    0.075277
         0.075277    0.075277   -0.246169

siesta: Pressure (static):        394.41034154  kBar

siesta: Stress tensor (total) (eV/Ang**3):
        -0.246169    0.075277    0.075277
         0.075277   -0.246169    0.075277
         0.075277    0.075277   -0.246169

siesta: Pressure (total):        394.41034154  kBar

mulliken: Mulliken Atomic and Orbital Populations:

Species: Si                  
Atom  Qatom  Qorb
               3s      3s      3py     3pz     3px     3py     3pz     3px     
               3Pdxy   3Pdyz   3Pdz2   3Pdxz   3Pdx2-y2
   1  4.266   0.232   0.822   0.054   0.054   0.054   0.718   0.718   0.718
              0.190   0.190   0.162   0.190   0.162
   2  3.826   0.651   0.587   0.054   0.054   0.054   0.614   0.614   0.614
              0.140   0.140   0.083   0.140   0.083
   3  3.912   0.514   0.647  -0.000   0.093  -0.000   0.678   0.628   0.678
              0.164   0.151   0.091   0.151   0.117
   4  4.057   0.383   0.719   0.058  -0.061   0.058   0.688   0.754   0.688
              0.165   0.172   0.154   0.172   0.108
   5  3.912   0.514   0.647   0.093  -0.000  -0.000   0.628   0.678   0.678
              0.151   0.151   0.110   0.164   0.098
   6  4.057   0.383   0.719  -0.061   0.058   0.058   0.754   0.688   0.688
              0.172   0.172   0.120   0.165   0.143
   7  3.912   0.514   0.647  -0.000  -0.000   0.093   0.678   0.678   0.628
              0.151   0.164   0.110   0.151   0.098
   8  4.057   0.383   0.719   0.058   0.058  -0.061   0.688   0.688   0.754
              0.172   0.165   0.120   0.172   0.143

mulliken: Qtot =       32.000

* Maximum dynamic memory allocated =    86 MB

siesta:                 ==============================
                            Begin CG move =      2
                        ==============================

outcoor: Atomic coordinates (Ang):                          
    0.04175832    0.04175836    0.04175831   1       1  Si
    1.37568159    1.37568156    1.37568155   1       2  Si
    2.74331675    2.74331679    0.00967485   1       3  Si
    4.05220510    4.05220503    1.39386895   1       4  Si
    2.74331685    0.00967476    2.74331695   1       5  Si
    4.05220520    1.39386879    4.05220510   1       6  Si
    0.00967469    2.74331684    2.74331696   1       7  Si
    1.39386876    4.05220520    4.05220514   1       8  Si
 Kpoints in:          196 . Kpoints trimmed:          172

siesta: k-grid: Number of k-points =   172
siesta: k-grid: Cutoff (effective) =    17.818 Ang
siesta: k-grid: Supercell and displacements
siesta: k-grid:    0   7   0      0.000
siesta: k-grid:    0   0   7      0.000
siesta: k-grid:    7   0   0      0.000
Naive supercell factors:     5    5    5

superc: Internal auxiliary supercell:     5 x     5 x     5  =     125
superc: Number of atoms, orbitals, and projectors:   1000  13000  16000

outcell: Unit cell vectors (Ang):
        5.090660   -0.031234   -0.031234
       -0.031234    5.090660   -0.031234
       -0.031234   -0.031234    5.090660

outcell: Cell vector modules (Ang)   :    5.090851    5.090851    5.090851
outcell: Cell angles (23,13,12) (deg):     90.7009     90.7009     90.7009
outcell: Cell volume (Ang**3)        :    131.9085
New_DM. Step:     3
Re-using DM from previous geometry...
Re-using DM without extrapolation (not allowed)
Density Matrix sparsity pattern changed.
siesta:    4     -857.8596     -857.8222     -857.8236  0.0018 -5.9128

InitMesh: MESH =    32 x    32 x    32 =       32768
InitMesh: Mesh cutoff (required, used) =   100.000   109.233 Ry
siesta:    5     -857.8596     -857.8438     -857.8452  0.0009 -5.9129

siesta: iscf   Eharris(eV)      E_KS(eV)   FreeEng(eV)   dDmax  Ef(eV)
siesta:    1     -857.8884     -855.7669     -855.7695  0.1091 -5.9388

siesta: E_KS(eV) =             -857.8575

siesta: Atomic forces (eV/Ang):
----------------------------------------
   Tot   -0.006386   -0.006391   -0.006426
----------------------------------------
   Max    3.066580
   Res    1.863942    sqrt( Sum f_i^2 / 3N )
----------------------------------------
   Max    3.066580    constrained

Stress-tensor-Voigt (kbar):     -301.58     -301.58     -301.58       68.56       68.56       68.56
(Free)E + p*V (eV/cell)     -833.0299
Target enthalpy (eV/cell)     -857.8589

siesta: Stress tensor (static) (eV/Ang**3):
        -0.188228    0.042794    0.042794
         0.042794   -0.188228    0.042794
         0.042794    0.042794   -0.188228

siesta: Pressure (static):        301.57731323  kBar

siesta: Stress tensor (total) (eV/Ang**3):
        -0.188228    0.042794    0.042794
         0.042794   -0.188228    0.042794
         0.042794    0.042794   -0.188228

siesta: Pressure (total):        301.57731323  kBar

mulliken: Mulliken Atomic and Orbital Populations:

Species: Si                  
Atom  Qatom  Qorb
               3s      3s      3py     3pz     3px     3py     3pz     3px     
               3Pdxy   3Pdyz   3Pdz2   3Pdxz   3Pdx2-y2
   1  4.110   0.332   0.748   0.032   0.032   0.032   0.714   0.714   0.714
              0.175   0.175   0.134   0.175   0.134
   2  3.883   0.652   0.580   0.092   0.092   0.092   0.601   0.601   0.601
              0.136   0.136   0.082   0.136   0.082
   3  3.958   0.521   0.639   0.047   0.110   0.047   0.657   0.623   0.657
              0.158   0.149   0.092   0.149   0.109
   4  4.044   0.417   0.694   0.083  -0.051   0.083   0.667   0.748   0.667
              0.159   0.168   0.139   0.168   0.102
   5  3.958   0.521   0.639   0.110   0.047   0.047   0.623   0.657   0.657
              0.149   0.149   0.105   0.158   0.096
   6  4.044   0.417   0.694  -0.051   0.083   0.083   0.748   0.667   0.667
              0.168   0.168   0.111   0.159   0.130
   7  3.958   0.521   0.639   0.047   0.047   0.110   0.657   0.657   0.623
              0.149   0.158   0.105   0.149   0.096
   8  4.044   0.417   0.694   0.083   0.083  -0.051   0.667   0.667   0.748
              0.168   0.159   0.111   0.168   0.130

mulliken: Qtot =       32.000

* Maximum dynamic memory allocated =   102 MB

siesta:                 ==============================
                            Begin CG move =      3
                        ==============================

outcoor: Atomic coordinates (Ang):                          
    0.08335769    0.08335779    0.08335780   1       1  Si
    1.39117267    1.39117267    1.39117250   1       2  Si
    2.76560260    2.76560267    0.02093014   1       3  Si
    4.02260512    4.02260511    1.43086870   1       4  Si
    2.76560283    0.02093004    2.76560294   1       5  Si
    4.02260514    1.43086877    4.02260539   1       6  Si
    0.02092995    2.76560277    2.76560297   1       7  Si
    1.43086882    4.02260507    4.02260534   1       8  Si
 Kpoints in:          196 . Kpoints trimmed:          172

siesta: k-grid: Number of k-points =   172
siesta: k-grid: Cutoff (effective) =    18.132 Ang
siesta: k-grid: Supercell and displacements
siesta: k-grid:    0   7   0      0.000
siesta: k-grid:    0   0   7      0.000
siesta: k-grid:    7   0   0      0.000
Naive supercell factors:     5    5    5

superc: Internal auxiliary supercell:     5 x     5 x     5  =     125
superc: Number of atoms, orbitals, and projectors:   1000  13000  16000

outcell: Unit cell vectors (Ang):
        5.179955   -0.061986   -0.061986
       -0.061986    5.179955   -0.061986
       -0.061986   -0.061986    5.179955

outcell: Cell vector modules (Ang)   :    5.180697    5.180697    5.180697
outcell: Cell angles (23,13,12) (deg):     91.3628     91.3628     91.3628
outcell: Cell volume (Ang**3)        :    138.9280
New_DM. Step:     4
Re-using DM from previous geometry...
Re-using DM without extrapolation (not allowed)
siesta:    2     -857.9623     -857.8080     -857.8093  0.0517 -5.8662

InitMesh: MESH =    32 x    32 x    32 =       32768
InitMesh: Mesh cutoff (required, used) =   100.000   105.567 Ry
siesta:    3     -857.8603     -857.7251     -857.7266  0.0071 -5.9081

siesta: iscf   Eharris(eV)      E_KS(eV)   FreeEng(eV)   dDmax  Ef(eV)
siesta:    1     -860.2553     -857.3264     -857.3278  0.1157 -5.7493
siesta:    4     -857.8595     -857.8220     -857.8235  0.0018 -5.9127
siesta:    2     -860.6402     -859.8533     -859.8546  0.1112 -5.6785
siesta:    5     -857.8595     -857.8436     -857.8451  0.0009 -5.9129
siesta:    3     -860.1213     -859.5874     -859.5890  0.0272 -5.7080

siesta: E_KS(eV) =             -857.8574

siesta: Atomic forces (eV/Ang):
----------------------------------------
   Tot   -0.005691   -0.005684   -0.005713
----------------------------------------
   Max    3.066937
   Res    1.863920    sqrt( Sum f_i^2 / 3N )
----------------------------------------
   Max    3.066937    constrained

Stress-tensor-Voigt (kbar):     -301.57     -301.57     -301.57       68.59       68.59       68.59
(Free)E + p*V (eV/cell)     -833.0302
Target enthalpy (eV/cell)     -857.8588

siesta: Stress tensor (static) (eV/Ang**3):
        -0.188226    0.042813    0.042813
         0.042813   -0.188226    0.042813
         0.042813    0.042813   -0.188226

siesta: Pressure (static):        301.57458384  kBar

siesta: Stress tensor (total) (eV/Ang**3):
        -0.188226    0.042813    0.042813
         0.042813   -0.188226    0.042813
         0.042813    0.042813   -0.188226

siesta: Pressure (total):        301.57458384  kBar

mulliken: Mulliken Atomic and Orbital Populations:

Species: Si                  
Atom  Qatom  Qorb
               3s      3s      3py     3pz     3px     3py     3pz     3px     
               3Pdxy   3Pdyz   3Pdz2   3Pdxz   3Pdx2-y2
   1  4.110   0.332   0.748   0.032   0.032   0.032   0.714   0.714   0.714
              0.175   0.175   0.134   0.175   0.134
   2  3.883   0.652   0.580   0.092   0.092   0.092   0.601   0.601   0.601
              0.136   0.136   0.082   0.136   0.082
   3  3.958   0.521   0.639   0.047   0.110   0.047   0.657   0.623   0.657
              0.158   0.149   0.092   0.149   0.109
   4  4.044   0.417   0.694   0.083  -0.051   0.083   0.667   0.748   0.667
              0.159   0.168   0.139   0.168   0.102
   5  3.958   0.521   0.639   0.110   0.047   0.047   0.623   0.657   0.657
              0.149   0.149   0.105   0.158   0.096
   6  4.044   0.417   0.694  -0.051   0.083   0.083   0.748   0.667   0.667
              0.168   0.168   0.111   0.159   0.130
   7  3.958   0.521   0.639   0.047   0.047   0.110   0.657   0.657   0.623
              0.149   0.158   0.105   0.149   0.096
   8  4.044   0.417   0.694   0.083   0.083  -0.051   0.667   0.667   0.748
              0.168   0.159   0.111   0.168   0.130

mulliken: Qtot =       32.000

* Maximum dynamic memory allocated =    98 MB

siesta:                 ==============================
                            Begin CG move =      3
                        ==============================

outcoor: Atomic coordinates (Ang):                          
    0.08333172    0.08333179    0.08333170   1       1  Si
    1.39120971    1.39120967    1.39120963   1       2  Si
    2.76555197    2.76555205    0.02092734   1       3  Si
    4.02257868    4.02257853    1.43090903   1       4  Si
    2.76555217    0.02092715    2.76555238   1       5  Si
    4.02257889    1.43090872    4.02257867   1       6  Si
    0.02092701    2.76555216    2.76555240   1       7  Si
    1.43090864    4.02257888    4.02257875   1       8  Si
 Kpoints in:          196 . Kpoints trimmed:          172

siesta: k-grid: Number of k-points =   172
siesta: k-grid: Cutoff (effective) =    18.132 Ang
siesta: k-grid: Supercell and displacements
siesta: k-grid:    0   7   0      0.000
siesta: k-grid:    0   0   7      0.000
siesta: k-grid:    7   0   0      0.000
Naive supercell factors:     5    5    5

superc: Internal auxiliary supercell:     5 x     5 x     5  =     125
superc: Number of atoms, orbitals, and projectors:   1000  13000  16000

outcell: Unit cell vectors (Ang):
        5.179925   -0.061987   -0.061987
       -0.061987    5.179925   -0.061987
       -0.061987   -0.061987    5.179925

outcell: Cell vector modules (Ang)   :    5.180666    5.180666    5.180666
outcell: Cell angles (23,13,12) (deg):     91.3628     91.3628     91.3628
outcell: Cell volume (Ang**3)        :    138.9256
New_DM. Step:     4
Re-using DM from previous geometry...
Re-using DM without extrapolation (not allowed)

InitMesh: MESH =    32 x    32 x    32 =       32768
InitMesh: Mesh cutoff (required, used) =   100.000   105.568 Ry
siesta:    4     -860.1183     -860.0153     -860.0168  0.0035 -5.7122
siesta:    5     -860.1183     -860.0491     -860.0506  0.0022 -5.7120

siesta: iscf   Eharris(eV)      E_KS(eV)   FreeEng(eV)   dDmax  Ef(eV)
siesta:    1     -860.2551     -857.3264     -857.3279  0.1156 -5.7491
siesta:    2     -860.6403     -859.8529     -859.8542  0.1112 -5.6785
siesta:    6     -860.1183     -860.1049     -860.1064  0.0005 -5.7116
siesta:    3     -860.1211     -859.5869     -859.5885  0.0272 -5.7079

siesta: E_KS(eV) =             -860.1114

siesta: Atomic forces (eV/Ang):
----------------------------------------
   Tot   -0.002169   -0.002162   -0.002150
----------------------------------------
   Max    2.404330
   Res    1.102439    sqrt( Sum f_i^2 / 3N )
----------------------------------------
   Max    2.404330    constrained

Stress-tensor-Voigt (kbar):     -193.14     -193.14     -193.14        6.28        6.28        6.28
(Free)E + p*V (eV/cell)     -843.3659
Target enthalpy (eV/cell)     -860.1129

siesta: Stress tensor (static) (eV/Ang**3):
        -0.120545    0.003919    0.003919
         0.003919   -0.120545    0.003919
         0.003919    0.003919   -0.120545

siesta: Pressure (static):        193.13603883  kBar

siesta: Stress tensor (total) (eV/Ang**3):
        -0.120545    0.003919    0.003919
         0.003919   -0.120545    0.003919
         0.003919    0.003919   -0.120545

siesta: Pressure (total):        193.13603883  kBar

mulliken: Mulliken Atomic and Orbital Populations:

Species: Si                  
Atom  Qatom  Qorb
               3s      3s      3py     3pz     3px     3py     3pz     3px     
               3Pdxy   3Pdyz   3Pdz2   3Pdxz   3Pdx2-y2
   1  3.987   0.494   0.652   0.073   0.073   0.073   0.655   0.655   0.655
              0.151   0.151   0.101   0.151   0.101
   2  3.944   0.649   0.573   0.131   0.131   0.131   0.589   0.589   0.589
              0.134   0.134   0.080   0.134   0.080
   3  4.001   0.527   0.632   0.104   0.105   0.104   0.630   0.633   0.630
              0.149   0.147   0.095   0.147   0.098
   4  4.022   0.473   0.661   0.115   0.004   0.115   0.637   0.705   0.637
              0.150   0.157   0.116   0.157   0.094
   5  4.001   0.527   0.632   0.105   0.104   0.104   0.633   0.630   0.630
              0.147   0.147   0.097   0.149   0.096
   6  4.022   0.473   0.661   0.004   0.115   0.115   0.705   0.637   0.637
              0.157   0.157   0.100   0.150   0.111
   7  4.001   0.527   0.632   0.104   0.104   0.105   0.630   0.630   0.633
              0.147   0.149   0.097   0.147   0.096
   8  4.022   0.473   0.661   0.115   0.115   0.004   0.637   0.637   0.705
              0.157   0.150   0.100   0.157   0.111

mulliken: Qtot =       32.000

* Maximum dynamic memory allocated =   102 MB

siesta:                 ==============================
                            Begin CG move =      4
                        ==============================

outcoor: Atomic coordinates (Ang):                          
    0.13324420    0.13324436    0.13324438   1       1  Si
    1.40967088    1.40967088    1.40967060   1       2  Si
    2.79106230    2.79106242    0.03648968   1       3  Si
    3.98459672    3.98459672    1.47949798   1       4  Si
    2.79106268    0.03648951    2.79106286   1       5  Si
    3.98459676    1.47949810    3.98459716   1       6  Si
    0.03648937    2.79106258    2.79106290   1       7  Si
    1.47949818    3.98459664    3.98459708   1       8  Si
 Kpoints in:          196 . Kpoints trimmed:          172

siesta: k-grid: Number of k-points =   172
siesta: k-grid: Cutoff (effective) =    18.507 Ang
siesta: k-grid: Supercell and displacements
siesta: k-grid:    0   7   0      0.000
siesta: k-grid:    0   0   7      0.000
siesta: k-grid:    7   0   0      0.000
Naive supercell factors:     5    5    5

superc: Internal auxiliary supercell:     5 x     5 x     5  =     125
superc: Number of atoms, orbitals, and projectors:   1000  13000  16000

outcell: Unit cell vectors (Ang):
        5.285790   -0.098441   -0.098441
       -0.098441    5.285790   -0.098441
       -0.098441   -0.098441    5.285790

outcell: Cell vector modules (Ang)   :    5.287624    5.287623    5.287623
outcell: Cell angles (23,13,12) (deg):     92.1133     92.1133     92.1133
outcell: Cell volume (Ang**3)        :    147.5272
New_DM. Step:     5
Re-using DM from previous geometry...
Re-using DM without extrapolation (not allowed)
Density Matrix sparsity pattern changed.

InitMesh: MESH =    32 x    32 x    32 =       32768
InitMesh: Mesh cutoff (required, used) =   100.000   101.510 Ry
siesta:    4     -860.1180     -860.0150     -860.0165  0.0035 -5.7121

siesta: iscf   Eharris(eV)      E_KS(eV)   FreeEng(eV)   dDmax  Ef(eV)
siesta:    1     -860.9986     -858.3661     -858.3676  0.0859 -5.7058
siesta:    5     -860.1180     -860.0488     -860.0503  0.0022 -5.7119
siesta:    2     -861.9897     -860.0204     -860.0208  0.1298 -5.7729
siesta:    3     -860.6725     -859.7912     -859.7932  0.0385 -5.7400
siesta:    6     -860.1180     -860.1046     -860.1061  0.0005 -5.7115
siesta:    4     -860.6713     -860.4523     -860.4529  0.0041 -5.7439

siesta: E_KS(eV) =             -860.1111

siesta: Atomic forces (eV/Ang):
----------------------------------------
   Tot   -0.001946   -0.001943   -0.001920
----------------------------------------
   Max    2.405046
   Res    1.102621    sqrt( Sum f_i^2 / 3N )
----------------------------------------
   Max    2.405046    constrained

Stress-tensor-Voigt (kbar):     -193.17     -193.17     -193.17        6.32        6.32        6.32
(Free)E + p*V (eV/cell)     -843.3629
Target enthalpy (eV/cell)     -860.1126

siesta: Stress tensor (static) (eV/Ang**3):
        -0.120566    0.003943    0.003943
         0.003943   -0.120566    0.003943
         0.003943    0.003943   -0.120567

siesta: Pressure (static):        193.17077770  kBar

siesta: Stress tensor (total) (eV/Ang**3):
        -0.120566    0.003943    0.003943
         0.003943   -0.120566    0.003943
         0.003943    0.003943   -0.120567

siesta: Pressure (total):        193.17077770  kBar

mulliken: Mulliken Atomic and Orbital Populations:

Species: Si                  
Atom  Qatom  Qorb
               3s      3s      3py     3pz     3px     3py     3pz     3px     
               3Pdxy   3Pdyz   3Pdz2   3Pdxz   3Pdx2-y2
   1  3.986   0.494   0.652   0.073   0.073   0.073   0.655   0.655   0.655
              0.151   0.151   0.101   0.151   0.101
   2  3.944   0.649   0.573   0.131   0.131   0.131   0.589   0.589   0.589
              0.134   0.134   0.080   0.134   0.080
   3  4.001   0.527   0.632   0.104   0.105   0.104   0.630   0.633   0.630
              0.149   0.147   0.095   0.147   0.098
   4  4.022   0.473   0.661   0.115   0.004   0.115   0.637   0.705   0.637
              0.150   0.157   0.116   0.157   0.094
   5  4.001   0.527   0.632   0.105   0.104   0.104   0.633   0.630   0.630
              0.147   0.147   0.097   0.149   0.096
   6  4.022   0.473   0.661   0.004   0.115   0.115   0.705   0.637   0.637
              0.157   0.157   0.100   0.150   0.111
   7  4.001   0.527   0.632   0.104   0.104   0.105   0.630   0.630   0.633
              0.147   0.149   0.097   0.147   0.096
   8  4.022   0.473   0.661   0.115   0.115   0.004   0.637   0.637   0.705
              0.157   0.150   0.100   0.157   0.111

mulliken: Qtot =       32.000

* Maximum dynamic memory allocated =    98 MB

siesta:                 ==============================
                            Begin CG move =      4
                        ==============================

outcoor: Atomic coordinates (Ang):                          
    0.13321069    0.13321081    0.13321067   1       1  Si
    1.40973324    1.40973317    1.40973311   1       2  Si
    2.79098550    2.79098564    0.03648829   1       3  Si
    3.98454820    3.98454796    1.47957177   1       4  Si
    2.79098582    0.03648797    2.79098617   1       5  Si
    3.98454854    1.47957126    3.98454819   1       6  Si
    0.03648774    2.79098581    2.79098620   1       7  Si
    1.47957115    3.98454852    3.98454831   1       8  Si
 Kpoints in:          196 . Kpoints trimmed:          172

siesta: k-grid: Number of k-points =   172
siesta: k-grid: Cutoff (effective) =    18.507 Ang
siesta: k-grid: Supercell and displacements
siesta: k-grid:    0   7   0      0.000
siesta: k-grid:    0   0   7      0.000
siesta: k-grid:    7   0   0      0.000
Naive supercell factors:     5    5    5

superc: Internal auxiliary supercell:     5 x     5 x     5  =     125
superc: Number of atoms, orbitals, and projectors:   1000  13000  16000

outcell: Unit cell vectors (Ang):
        5.285760   -0.098449   -0.098449
       -0.098449    5.285760   -0.098449
       -0.098449   -0.098449    5.285760

outcell: Cell vector modules (Ang)   :    5.287593    5.287593    5.287593
outcell: Cell angles (23,13,12) (deg):     92.1134     92.1134     92.1134
outcell: Cell volume (Ang**3)        :    147.5246
New_DM. Step:     5
Re-using DM from previous geometry...
Re-using DM without extrapolation (not allowed)
Density Matrix sparsity pattern changed.

InitMesh: MESH =    32 x    32 x    32 =       32768
InitMesh: Mesh cutoff (required, used) =   100.000   101.511 Ry
siesta:    5     -860.6711     -860.5395     -860.5400  0.0023 -5.7421

siesta: iscf   Eharris(eV)      E_KS(eV)   FreeEng(eV)   dDmax  Ef(eV)
siesta:    1     -860.9987     -858.3660     -858.3675  0.0859 -5.7059
siesta:    6     -860.6709     -860.6243     -860.6248  0.0008 -5.7399
siesta:    2     -861.9908     -860.0197     -860.0200  0.1299 -5.7730

siesta: E_KS(eV) =             -860.6455

siesta: Atomic forces (eV/Ang):
----------------------------------------
   Tot   -0.009988   -0.009975   -0.009953
----------------------------------------
   Max    1.583917
   Res    1.126293    sqrt( Sum f_i^2 / 3N )
----------------------------------------
   Max    1.583917    constrained

Stress-tensor-Voigt (kbar):     -112.50     -112.50     -112.50      -42.65      -42.65      -42.65
(Free)E + p*V (eV/cell)     -850.2870
Target enthalpy (eV/cell)     -860.6461

siesta: Stress tensor (static) (eV/Ang**3):
        -0.070218   -0.026623   -0.026622
        -0.026623   -0.070218   -0.026622
        -0.026622   -0.026622   -0.070218

siesta: Pressure (static):        112.50252884  kBar

siesta: Stress tensor (total) (eV/Ang**3):
        -0.070218   -0.026623   -0.026622
        -0.026623   -0.070218   -0.026622
        -0.026622   -0.026622   -0.070218

siesta: Pressure (total):        112.50252884  kBar

mulliken: Mulliken Atomic and Orbital Populations:

Species: Si                  
Atom  Qatom  Qorb
               3s      3s      3py     3pz     3px     3py     3pz     3px     
               3Pdxy   3Pdyz   3Pdz2   3Pdxz   3Pdx2-y2
   1  3.984   0.668   0.564   0.192   0.192   0.192   0.548   0.548   0.548
              0.126   0.126   0.077   0.126   0.077
   2  3.987   0.621   0.585   0.168   0.168   0.168   0.572   0.572   0.572
              0.134   0.134   0.080   0.134   0.080
   3  4.008   0.521   0.634   0.161   0.068   0.161   0.593   0.654   0.593
              0.141   0.146   0.102   0.146   0.086
   4  4.002   0.542   0.624   0.156   0.091   0.156   0.596   0.634   0.596
              0.139   0.142   0.097   0.142   0.087
   5  4.008   0.521   0.634   0.068   0.161   0.161   0.654   0.593   0.593
              0.146   0.146   0.090   0.141   0.098
   6  4.002   0.542   0.624   0.091   0.156   0.156   0.634   0.596   0.596
              0.142   0.142   0.090   0.139   0.095
   7  4.008   0.521   0.634   0.161   0.161   0.068   0.593   0.593   0.654
              0.146   0.141   0.090   0.146   0.098
   8  4.002   0.542   0.624   0.156   0.156   0.091   0.596   0.596   0.634
              0.142   0.139   0.090   0.142   0.095

mulliken: Qtot =       32.000

* Maximum dynamic memory allocated =   102 MB

siesta:                 ==============================
                            Begin CG move =      5
                        ==============================

outcoor: Atomic coordinates (Ang):                          
    0.12709007    0.12709023    0.12709025   1       1  Si
    1.40739507    1.40739506    1.40739480   1       2  Si
    2.78799328    2.78799339    0.03445140   1       3  Si
    3.98942887    3.98942887    1.47325545   1       4  Si
    2.78799364    0.03445123    2.78799381   1       5  Si
    3.98942891    1.47325556    3.98942929   1       6  Si
    0.03445110    2.78799354    2.78799385   1       7  Si
    1.47325564    3.98942879    3.98942921   1       8  Si
 Kpoints in:          196 . Kpoints trimmed:          172

siesta: k-grid: Number of k-points =   172
siesta: k-grid: Cutoff (effective) =    18.461 Ang
siesta: k-grid: Supercell and displacements
siesta: k-grid:    0   7   0      0.000
siesta: k-grid:    0   0   7      0.000
siesta: k-grid:    7   0   0      0.000
Naive supercell factors:     5    5    5

superc: Internal auxiliary supercell:     5 x     5 x     5  =     125
superc: Number of atoms, orbitals, and projectors:   1000  13000  16000

outcell: Unit cell vectors (Ang):
        5.272807   -0.093969   -0.093969
       -0.093969    5.272807   -0.093969
       -0.093969   -0.093969    5.272807

outcell: Cell vector modules (Ang)   :    5.274482    5.274482    5.274482
outcell: Cell angles (23,13,12) (deg):     92.0231     92.0231     92.0231
outcell: Cell volume (Ang**3)        :    146.4559
New_DM. Step:     6
Re-using DM from previous geometry...
Re-using DM without extrapolation (not allowed)
Density Matrix sparsity pattern changed.

InitMesh: MESH =    32 x    32 x    32 =       32768
InitMesh: Mesh cutoff (required, used) =   100.000   101.992 Ry
siesta:    3     -860.6723     -859.7906     -859.7926  0.0385 -5.7400

siesta: iscf   Eharris(eV)      E_KS(eV)   FreeEng(eV)   dDmax  Ef(eV)
siesta:    1     -860.7061     -860.8647     -860.8653  0.0161 -5.7328
siesta:    4     -860.6711     -860.4519     -860.4525  0.0041 -5.7439
siesta:    2     -860.7209     -860.6911     -860.6915  0.0181 -5.7216
siesta:    5     -860.6709     -860.5392     -860.5398  0.0023 -5.7422
siesta:    3     -860.7011     -860.7320     -860.7324  0.0035 -5.7264
siesta:    6     -860.6707     -860.6240     -860.6246  0.0008 -5.7399
siesta:    4     -860.7011     -860.6983     -860.6987  0.0005 -5.7261

siesta: E_KS(eV) =             -860.6453

siesta: Atomic forces (eV/Ang):
----------------------------------------
   Tot   -0.009997   -0.009986   -0.009977
----------------------------------------
   Max    1.585879
   Res    1.126075    sqrt( Sum f_i^2 / 3N )
----------------------------------------
   Max    1.585879    constrained

Stress-tensor-Voigt (kbar):     -112.52     -112.52     -112.52      -42.62      -42.62      -42.62
(Free)E + p*V (eV/cell)     -850.2857
Target enthalpy (eV/cell)     -860.6458

siesta: Stress tensor (static) (eV/Ang**3):
        -0.070226   -0.026600   -0.026600
        -0.026600   -0.070226   -0.026600
        -0.026600   -0.026600   -0.070226

siesta: Pressure (static):        112.51608126  kBar

siesta: Stress tensor (total) (eV/Ang**3):
        -0.070226   -0.026600   -0.026600
        -0.026600   -0.070226   -0.026600
        -0.026600   -0.026600   -0.070226

siesta: Pressure (total):        112.51608126  kBar

mulliken: Mulliken Atomic and Orbital Populations:

Species: Si                  
Atom  Qatom  Qorb
               3s      3s      3py     3pz     3px     3py     3pz     3px     
               3Pdxy   3Pdyz   3Pdz2   3Pdxz   3Pdx2-y2
   1  3.984   0.668   0.564   0.192   0.192   0.192   0.548   0.548   0.548
              0.126   0.126   0.077   0.126   0.077
   2  3.987   0.621   0.585   0.168   0.168   0.168   0.572   0.572   0.572
              0.134   0.134   0.080   0.134   0.080
   3  4.008   0.521   0.634   0.161   0.068   0.161   0.593   0.654   0.593
              0.141   0.146   0.102   0.146   0.086
   4  4.002   0.542   0.624   0.156   0.091   0.156   0.596   0.634   0.596
              0.139   0.142   0.097   0.142   0.087
   5  4.008   0.521   0.634   0.068   0.161   0.161   0.654   0.593   0.593
              0.146   0.146   0.090   0.141   0.098
   6  4.002   0.542   0.624   0.091   0.156   0.156   0.634   0.596   0.596
              0.142   0.142   0.090   0.139   0.095
   7  4.008   0.521   0.634   0.161   0.161   0.068   0.593   0.593   0.654
              0.146   0.141   0.090   0.146   0.098
   8  4.002   0.542   0.624   0.156   0.156   0.091   0.596   0.596   0.634
              0.142   0.139   0.090   0.142   0.095

mulliken: Qtot =       32.000

* Maximum dynamic memory allocated =    98 MB

siesta:                 ==============================
                            Begin CG move =      5
                        ==============================

outcoor: Atomic coordinates (Ang):                          
    0.12705881    0.12705892    0.12705879   1       1  Si
    1.40745478    1.40745471    1.40745465   1       2  Si
    2.78792038    2.78792051    0.03445021   1       3  Si
    3.98938209    3.98938186    1.47332631   1       4  Si
    2.78792069    0.03444990    2.78792101   1       5  Si
    3.98938241    1.47332583    3.98938208   1       6  Si
    0.03444969    2.78792067    2.78792104   1       7  Si
    1.47332572    3.98938239    3.98938220   1       8  Si
 Kpoints in:          196 . Kpoints trimmed:          172

siesta: k-grid: Number of k-points =   172
siesta: k-grid: Cutoff (effective) =    18.461 Ang
siesta: k-grid: Supercell and displacements
siesta: k-grid:    0   7   0      0.000
siesta: k-grid:    0   0   7      0.000
siesta: k-grid:    7   0   0      0.000
Naive supercell factors:     5    5    5

superc: Internal auxiliary supercell:     5 x     5 x     5  =     125
superc: Number of atoms, orbitals, and projectors:   1000  13000  16000

outcell: Unit cell vectors (Ang):
        5.272780   -0.093977   -0.093977
       -0.093977    5.272779   -0.093977
       -0.093977   -0.093977    5.272779

outcell: Cell vector modules (Ang)   :    5.274454    5.274454    5.274454
outcell: Cell angles (23,13,12) (deg):     92.0233     92.0233     92.0233
outcell: Cell volume (Ang**3)        :    146.4535
New_DM. Step:     6
Re-using DM from previous geometry...
Re-using DM without extrapolation (not allowed)
Density Matrix sparsity pattern changed.

InitMesh: MESH =    32 x    32 x    32 =       32768
InitMesh: Mesh cutoff (required, used) =   100.000   101.993 Ry

siesta: E_KS(eV) =             -860.6989

siesta: Atomic forces (eV/Ang):
----------------------------------------
   Tot   -0.005379   -0.005370   -0.005358
----------------------------------------
   Max    1.596076
   Res    1.090408    sqrt( Sum f_i^2 / 3N )
----------------------------------------
   Max    1.596076    constrained

Stress-tensor-Voigt (kbar):     -120.54     -120.54     -120.54      -37.83      -37.83      -37.83
(Free)E + p*V (eV/cell)     -849.6808
Target enthalpy (eV/cell)     -860.6993

siesta: Stress tensor (static) (eV/Ang**3):
        -0.075234   -0.023610   -0.023610
        -0.023610   -0.075234   -0.023610
        -0.023610   -0.023610   -0.075234

siesta: Pressure (static):        120.53946315  kBar

siesta: Stress tensor (total) (eV/Ang**3):
        -0.075234   -0.023610   -0.023610
        -0.023610   -0.075234   -0.023610
        -0.023610   -0.023610   -0.075234

siesta: Pressure (total):        120.53946315  kBar

mulliken: Mulliken Atomic and Orbital Populations:

Species: Si                  
Atom  Qatom  Qorb
               3s      3s      3py     3pz     3px     3py     3pz     3px     
               3Pdxy   3Pdyz   3Pdz2   3Pdxz   3Pdx2-y2
   1  3.977   0.648   0.573   0.173   0.173   0.173   0.564   0.564   0.564
              0.129   0.129   0.080   0.129   0.080
   2  3.982   0.626   0.582   0.163   0.163   0.163   0.575   0.575   0.575
              0.134   0.134   0.080   0.134   0.080
   3  4.009   0.522   0.634   0.155   0.075   0.155   0.598   0.650   0.598
              0.142   0.146   0.101   0.146   0.087
   4  4.004   0.535   0.627   0.151   0.079   0.151   0.601   0.644   0.601
              0.140   0.144   0.099   0.144   0.088
   5  4.009   0.522   0.634   0.075   0.155   0.155   0.650   0.598   0.598
              0.146   0.146   0.090   0.142   0.097
   6  4.004   0.535   0.627   0.079   0.151   0.151   0.644   0.601   0.601
              0.144   0.144   0.091   0.140   0.096
   7  4.009   0.522   0.634   0.155   0.155   0.075   0.598   0.598   0.650
              0.146   0.142   0.090   0.146   0.097
   8  4.004   0.535   0.627   0.151   0.151   0.079   0.601   0.601   0.644
              0.144   0.140   0.091   0.144   0.096

mulliken: Qtot =       32.000

cgvc: Finished line minimization    1.  Mean atomic displacement =    0.1741

* Maximum dynamic memory allocated =   102 MB

siesta:                 ==============================
                            Begin CG move =      6
                        ==============================

outcoor: Atomic coordinates (Ang):                          
    0.12088652    0.12088651    0.12088656   1       1  Si
    1.47133495    1.47133495    1.47133548   1       2  Si
    2.81009848    2.81009852    0.12692985   1       3  Si
    4.11056320    4.11056339    1.48153754   1       4  Si
    2.81009885    0.12693001    2.81009848   1       5  Si
    4.11056319    1.48153682    4.11056395   1       6  Si
    0.12693003    2.81009876    2.81009847   1       7  Si
    1.48153668    4.11056317    4.11056377   1       8  Si
 Kpoints in:          108 . Kpoints trimmed:          108

siesta: k-grid: Number of k-points =   108
siesta: k-grid: Cutoff (effective) =    16.139 Ang
siesta: k-grid: Supercell and displacements
siesta: k-grid:    6   0   0      0.500
siesta: k-grid:    0   6   0      0.500
siesta: k-grid:    0   0   6      0.500
Naive supercell factors:     5    5    5

superc: Internal auxiliary supercell:     5 x     5 x     5  =     125
superc: Number of atoms, orbitals, and projectors:   1000  13000  16000

outcell: Unit cell vectors (Ang):
        5.378643   -0.078692   -0.078692
       -0.078692    5.378643   -0.078692
       -0.078692   -0.078692    5.378643

outcell: Cell vector modules (Ang)   :    5.379794    5.379794    5.379794
outcell: Cell angles (23,13,12) (deg):     91.6638     91.6638     91.6638
outcell: Cell volume (Ang**3)        :    155.5021
New_DM. Step:     7
Re-using DM from previous geometry...
Re-using DM without extrapolation (not allowed)
Density Matrix sparsity pattern changed.

InitMesh: MESH =    36 x    36 x    36 =       46656
InitMesh: Mesh cutoff (required, used) =   100.000   123.974 Ry

siesta: iscf   Eharris(eV)      E_KS(eV)   FreeEng(eV)   dDmax  Ef(eV)
siesta:    1     -860.7059     -860.8644     -860.8650  0.0161 -5.7328

siesta: iscf   Eharris(eV)      E_KS(eV)   FreeEng(eV)   dDmax  Ef(eV)
siesta:    1     -861.8209     -859.3870     -859.3875  0.0730 -5.5002
siesta:    2     -860.7206     -860.6908     -860.6913  0.0181 -5.7216
siesta:    2     -862.1383     -861.4970     -861.4971  0.1045 -5.4678
siesta:    3     -860.7008     -860.7317     -860.7321  0.0035 -5.7264
siesta:    3     -861.7119     -861.2570     -861.2570  0.0173 -5.4981
siesta:    4     -860.7008     -860.6980     -860.6985  0.0005 -5.7261
siesta:    4     -861.7104     -861.6316     -861.6316  0.0027 -5.5015

siesta: E_KS(eV) =             -860.6987

siesta: Atomic forces (eV/Ang):
----------------------------------------
   Tot   -0.005293   -0.005278   -0.005270
----------------------------------------
   Max    1.598191
   Res    1.090400    sqrt( Sum f_i^2 / 3N )
----------------------------------------
   Max    1.598191    constrained

Stress-tensor-Voigt (kbar):     -120.57     -120.57     -120.57      -37.79      -37.79      -37.79
(Free)E + p*V (eV/cell)     -849.6781
Target enthalpy (eV/cell)     -860.6991

siesta: Stress tensor (static) (eV/Ang**3):
        -0.075253   -0.023584   -0.023584
        -0.023584   -0.075253   -0.023584
        -0.023584   -0.023584   -0.075253

siesta: Pressure (static):        120.56950048  kBar

siesta: Stress tensor (total) (eV/Ang**3):
[...]
         10.41  10.99  11.05  11.31  11.45  11.75  12.03  12.43  13.02  13.33
         14.10  14.30  14.53  14.63  14.69  15.71  16.18  16.42  16.47  17.16
         17.71  17.84  18.71  18.92  19.47  20.81  21.88  22.29  23.27  23.43
         23.83  24.03  24.80  25.19  26.43  26.60  32.97  37.71  38.99  41.19
         44.21  54.39  54.52  56.87  58.48  64.13  65.78  67.75  68.01  69.25
         73.41  86.59  89.24  90.80
  93  1 -16.57 -15.90 -14.72 -14.37 -12.51 -12.11 -10.68  -9.95  -9.68  -9.63
         -8.57  -8.33  -8.12  -7.86  -7.61  -6.66  -3.53  -3.51  -3.04  -2.40
         -2.17  -1.87  -1.86  -1.06  -1.05  -0.86  -0.65  -0.53   0.45   0.48
          1.11   1.90   1.92   1.96   2.53   3.47   3.91   3.96   4.58   5.56
          5.66   5.68   7.49   7.81   8.19   8.47   8.91   9.24   9.47  10.15
         10.41  10.99  11.05  11.31  11.46  11.75  12.02  12.44  13.02  13.34
         14.09  14.31  14.53  14.63  14.69  15.70  16.18  16.42  16.47  17.16
         17.71  17.84  18.72  18.91  19.46  20.80  21.88  22.29  23.26  23.43
         23.83  24.02  24.81  25.18  26.44  26.60  32.95  37.74  39.00  41.22
         44.13  54.40  54.59  56.89  58.53  64.10  65.78  67.74  68.01  69.21
         73.41  86.57  89.22  90.84
  94  1 -16.36 -15.72 -14.79 -14.79 -12.44 -12.44 -11.38 -10.58  -9.19  -9.18
         -8.14  -7.84  -7.84  -7.52  -7.00  -6.97  -3.64  -3.41  -3.27  -3.27
         -2.32  -1.69  -1.68  -1.50  -1.38  -0.69  -0.53   0.33   0.33   0.45
          0.70   0.70   2.73   2.73   3.22   3.23   4.76   4.91   5.05   5.32
          5.39   5.39   6.43   6.43   7.22   8.16   8.77   9.16   9.16   9.17
          9.31   9.32  11.11  11.44  11.45  11.78  13.09  13.30  13.52  13.52
         13.66  14.76  15.03  15.03  16.21  16.21  16.67  16.71  17.27  17.48
         17.48  17.89  17.89  19.27  19.27  19.28  20.88  22.25  22.40  24.00
         24.60  24.60  25.43  27.42  28.09  28.09  32.63  33.54  36.44  36.44
         41.72  49.38  56.22  56.22  57.18  62.15  64.51  68.84  68.85  69.99
         81.50  86.88  86.90  94.85
  95  1 -15.95 -15.40 -15.40 -15.03 -12.47 -12.07 -12.07 -11.43  -8.70  -8.27
         -8.27  -7.55  -7.28  -7.25  -7.24  -6.68  -3.52  -3.47  -3.09  -3.09
         -2.39  -2.39  -2.03  -1.99  -1.54  -1.18  -1.04  -1.04   1.23   1.23
          2.02   2.20   2.42   3.05   3.43   3.88   3.88   4.25   4.25   4.48
          5.12   6.93   6.94   7.13   7.13   7.65   8.00   8.61   8.80   8.81
          8.95   9.25   9.32  10.09  10.53  10.53  13.87  14.10  14.10  15.09
         15.09  15.14  15.60  15.85  15.89  15.98  16.58  16.59  17.75  18.42
         18.46  18.46  19.07  19.07  19.41  19.89  20.59  20.59  21.27  21.97
         27.00  27.24  27.24  28.98  29.10  32.55  32.55  34.64  39.97  41.69
         41.71  48.12  55.71  55.75  58.53  59.52  64.80  76.51  76.51  80.97
         81.92  81.93  90.41  93.87
  96  1 -15.96 -15.40 -15.39 -15.03 -12.47 -12.08 -12.07 -11.43  -8.70  -8.27
         -8.27  -7.55  -7.28  -7.25  -7.24  -6.68  -3.52  -3.47  -3.09  -3.09
         -2.40  -2.39  -2.02  -1.99  -1.55  -1.18  -1.04  -1.04   1.22   1.22
          2.02   2.21   2.41   3.05   3.43   3.88   3.88   4.25   4.25   4.49
          5.12   6.93   6.94   7.13   7.14   7.66   7.99   8.61   8.81   8.82
          8.95   9.24   9.31  10.09  10.52  10.53  13.86  14.10  14.11  15.09
         15.10  15.15  15.60  15.86  15.89  15.98  16.58  16.59  17.76  18.41
         18.46  18.47  19.07  19.09  19.42  19.90  20.58  20.58  21.28  21.94
         27.01  27.24  27.25  28.97  29.11  32.55  32.55  34.68  39.94  41.70
         41.72  48.14  55.69  55.72  58.55  59.55  64.88  76.55  76.57  80.94
         81.90  81.92  90.39  93.88
  97  1 -15.96 -15.40 -15.40 -15.03 -12.48 -12.07 -12.07 -11.43  -8.70  -8.27
         -8.27  -7.55  -7.29  -7.25  -7.25  -6.68  -3.52  -3.48  -3.08  -3.08
         -2.40  -2.40  -2.03  -1.99  -1.55  -1.18  -1.04  -1.04   1.22   1.22
          2.02   2.20   2.41   3.05   3.43   3.88   3.88   4.26   4.26   4.49
          5.14   6.94   6.94   7.13   7.13   7.66   8.00   8.61   8.81   8.81
          8.96   9.24   9.31  10.08  10.52  10.52  13.86  14.10  14.10  15.09
         15.10  15.16  15.60  15.86  15.89  15.99  16.59  16.59  17.76  18.41
         18.46  18.47  19.07  19.07  19.42  19.90  20.59  20.59  21.27  21.96
         27.00  27.24  27.24  28.97  29.12  32.59  32.59  34.64  39.95  41.69
         41.71  48.10  55.75  55.79  58.45  59.55  64.86  76.56  76.57  80.98
         81.93  81.94  90.37  93.83
  98  1 -16.14 -15.51 -15.51 -14.97 -12.02 -11.38 -11.38 -10.57  -9.73  -9.22
         -9.22  -8.61  -7.41  -7.35  -7.35  -6.61  -3.63  -2.90  -2.68  -2.68
         -2.01  -2.01  -1.62  -1.42  -0.32  -0.32  -0.28  -0.14   0.23   0.23
          0.52   0.97   1.56   1.93   2.33   2.58   2.59   4.08   4.08   5.18
          5.76   7.68   7.68   7.97   8.54   8.54   9.39   9.56   9.78   9.90
          9.90  10.60  11.11  11.66  11.66  12.06  12.71  12.88  12.94  12.95
         13.55  13.76  13.76  14.50  15.01  15.26  15.27  15.50  17.60  18.43
         18.43  19.23  20.04  20.04  20.51  20.51  21.76  21.76  21.95  22.49
         25.43  26.05  26.22  26.22  27.97  36.06  36.07  41.23  44.82  44.83
         51.21  51.54  54.44  54.45  59.77  61.61  63.30  69.95  69.96  81.50
         81.52  82.54  85.07  88.07
  99  1 -16.14 -15.51 -15.51 -14.97 -12.01 -11.38 -11.37 -10.58  -9.73  -9.23
         -9.22  -8.61  -7.41  -7.35  -7.34  -6.61  -3.63  -2.90  -2.68  -2.68
         -2.01  -2.01  -1.62  -1.43  -0.31  -0.31  -0.29  -0.13   0.23   0.23
          0.52   0.97   1.55   1.93   2.33   2.58   2.58   4.08   4.09   5.17
          5.76   7.68   7.68   7.98   8.54   8.55   9.39   9.55   9.79   9.89
          9.89  10.60  11.11  11.66  11.66  12.07  12.69  12.88  12.96  12.97
         13.55  13.74  13.75  14.51  15.01  15.26  15.26  15.50  17.61  18.42
         18.43  19.23  20.04  20.04  20.50  20.50  21.76  21.76  21.95  22.49
         25.43  26.05  26.22  26.22  27.98  36.05  36.06  41.24  44.77  44.78
         51.21  51.54  54.45  54.46  59.82  61.60  63.28  69.90  69.93  81.49
         81.51  82.54  85.08  88.03
 100  1 -15.95 -15.40 -15.40 -15.03 -12.47 -12.07 -12.07 -11.43  -8.70  -8.27
         -8.27  -7.55  -7.28  -7.25  -7.24  -6.68  -3.52  -3.47  -3.09  -3.09
         -2.39  -2.39  -2.03  -1.99  -1.54  -1.18  -1.04  -1.04   1.23   1.23
          2.02   2.20   2.42   3.05   3.43   3.88   3.88   4.25   4.25   4.48
          5.12   6.93   6.94   7.13   7.13   7.65   8.00   8.61   8.80   8.81
          8.95   9.25   9.32  10.09  10.53  10.53  13.87  14.10  14.10  15.09
         15.09  15.14  15.60  15.85  15.89  15.98  16.58  16.59  17.75  18.42
         18.46  18.46  19.07  19.07  19.41  19.89  20.59  20.59  21.27  21.97
         27.00  27.24  27.24  28.98  29.10  32.55  32.55  34.64  39.97  41.69
         41.71  48.12  55.71  55.75  58.53  59.52  64.80  76.51  76.51  80.97
         81.92  81.93  90.41  93.87
 101  1 -15.63 -15.27 -15.27 -15.27 -12.58 -12.57 -12.57 -12.18  -7.49  -7.49
         -7.48  -7.06  -7.06  -7.06  -6.84  -6.84  -4.16  -3.68  -3.68  -3.68
         -2.30  -2.30  -2.30  -2.17  -2.17  -1.88  -1.88  -1.88   2.71   2.72
          2.72   3.11   4.00   4.00   4.04   4.05   4.05   5.02   5.33   5.33
          5.33   6.11   6.12   6.12   6.25   6.25   6.25   7.69   7.69   7.90
          7.90   7.90   8.71   8.71   8.71   8.78  15.99  15.99  15.99  16.06
         16.53  16.53  16.77  16.77  16.77  17.41  17.42  17.42  18.19  18.19
         18.19  19.03  19.03  19.03  19.47  19.49  19.49  20.08  20.08  22.02
         28.45  28.46  28.46  29.94  29.94  30.09  30.09  30.10  52.06  52.06
         52.07  56.78  61.57  61.58  61.58  71.87  71.87  71.89  73.73  73.73
         87.29  87.29  87.33 102.81
 102  1 -15.63 -15.27 -15.27 -15.26 -12.58 -12.58 -12.58 -12.17  -7.49  -7.48
         -7.48  -7.07  -7.07  -7.07  -6.84  -6.84  -4.15  -3.68  -3.68  -3.68
         -2.31  -2.30  -2.30  -2.17  -2.16  -1.87  -1.87  -1.87   2.71   2.71
          2.71   3.11   4.00   4.00   4.04   4.04   4.04   5.03   5.33   5.33
          5.33   6.12   6.13   6.13   6.25   6.25   6.25   7.68   7.69   7.89
          7.90   7.90   8.70   8.70   8.71   8.76  15.99  15.99  16.00  16.06
         16.53  16.53  16.77  16.77  16.77  17.42  17.42  17.42  18.19  18.19
         18.21  19.04  19.04  19.04  19.47  19.47  19.47  20.08  20.09  21.98
         28.46  28.48  28.48  29.94  29.98  30.07  30.08  30.08  52.03  52.05
         52.06  56.78  61.53  61.58  61.62  71.83  71.85  71.88  73.72  73.79
         87.38  87.39  87.44 102.87
 103  1 -15.96 -15.40 -15.39 -15.03 -12.47 -12.08 -12.07 -11.43  -8.70  -8.27
         -8.27  -7.55  -7.28  -7.25  -7.24  -6.68  -3.52  -3.47  -3.09  -3.09
         -2.40  -2.39  -2.02  -1.99  -1.55  -1.18  -1.04  -1.04   1.22   1.22
          2.02   2.21   2.41   3.05   3.43   3.88   3.88   4.25   4.25   4.49
          5.12   6.93   6.94   7.13   7.14   7.66   7.99   8.61   8.81   8.82
          8.95   9.24   9.31  10.09  10.52  10.53  13.86  14.10  14.11  15.09
         15.10  15.15  15.60  15.86  15.89  15.98  16.58  16.59  17.76  18.41
         18.46  18.47  19.07  19.09  19.42  19.90  20.58  20.58  21.28  21.94
         27.01  27.24  27.25  28.97  29.11  32.54  32.55  34.68  39.94  41.70
         41.72  48.14  55.69  55.72  58.55  59.55  64.88  76.55  76.57  80.94
         81.90  81.92  90.39  93.88
 104  1 -16.14 -15.51 -15.50 -14.97 -12.01 -11.38 -11.38 -10.57  -9.73  -9.22
         -9.22  -8.61  -7.41  -7.35  -7.34  -6.61  -3.63  -2.90  -2.68  -2.68
         -2.02  -2.02  -1.61  -1.43  -0.32  -0.32  -0.28  -0.13   0.23   0.23
          0.53   0.98   1.56   1.93   2.32   2.58   2.58   4.09   4.09   5.17
          5.76   7.69   7.69   7.97   8.55   8.55   9.37   9.55   9.77   9.89
          9.90  10.60  11.11  11.66  11.67  12.06  12.70  12.88  12.95  12.95
         13.55  13.75  13.76  14.51  15.02  15.25  15.26  15.49  17.60  18.43
         18.44  19.24  20.04  20.05  20.48  20.52  21.75  21.75  21.96  22.48
         25.43  26.04  26.22  26.22  27.98  36.06  36.07  41.21  44.79  44.80
         51.27  51.56  54.40  54.42  59.88  61.59  63.35  69.92  69.95  81.46
         81.48  82.51  85.05  88.03
 105  1 -16.14 -15.51 -15.50 -14.97 -12.01 -11.38 -11.38 -10.57  -9.73  -9.22
         -9.22  -8.61  -7.41  -7.35  -7.34  -6.61  -3.63  -2.90  -2.68  -2.68
         -2.02  -2.02  -1.61  -1.43  -0.32  -0.32  -0.28  -0.13   0.23   0.23
          0.53   0.98   1.56   1.93   2.32   2.58   2.58   4.09   4.09   5.17
          5.76   7.69   7.69   7.97   8.55   8.55   9.37   9.55   9.77   9.89
          9.90  10.60  11.11  11.66  11.67  12.06  12.70  12.88  12.95  12.95
         13.55  13.75  13.76  14.51  15.02  15.25  15.26  15.49  17.60  18.43
         18.44  19.24  20.04  20.05  20.48  20.52  21.75  21.75  21.96  22.48
         25.43  26.04  26.22  26.22  27.98  36.06  36.07  41.21  44.79  44.80
         51.27  51.56  54.40  54.42  59.88  61.59  63.35  69.93  69.95  81.46
         81.48  82.51  85.05  88.03
 106  1 -15.96 -15.40 -15.39 -15.03 -12.47 -12.08 -12.07 -11.43  -8.70  -8.27
         -8.27  -7.55  -7.28  -7.25  -7.24  -6.68  -3.52  -3.47  -3.09  -3.09
         -2.40  -2.39  -2.02  -1.99  -1.55  -1.18  -1.04  -1.04   1.22   1.22
          2.02   2.21   2.41   3.05   3.43   3.88   3.88   4.25   4.25   4.49
          5.12   6.93   6.94   7.13   7.14   7.66   7.99   8.61   8.81   8.82
          8.95   9.24   9.31  10.09  10.52  10.53  13.86  14.10  14.11  15.09
         15.10  15.15  15.60  15.86  15.89  15.98  16.58  16.59  17.76  18.41
         18.46  18.47  19.07  19.09  19.42  19.90  20.58  20.58  21.28  21.94
         27.01  27.24  27.25  28.97  29.11  32.55  32.55  34.68  39.94  41.70
         41.72  48.14  55.69  55.72  58.55  59.55  64.88  76.55  76.57  80.94
         81.90  81.92  90.39  93.88
 107  1 -15.63 -15.27 -15.27 -15.26 -12.58 -12.58 -12.58 -12.17  -7.49  -7.48
         -7.48  -7.07  -7.07  -7.07  -6.84  -6.84  -4.15  -3.68  -3.68  -3.68
         -2.31  -2.30  -2.30  -2.17  -2.16  -1.87  -1.87  -1.87   2.71   2.71
          2.71   3.11   4.00   4.00   4.04   4.04   4.04   5.03   5.33   5.33
          5.33   6.12   6.13   6.13   6.25   6.25   6.25   7.68   7.69   7.89
          7.90   7.90   8.70   8.70   8.71   8.76  15.99  15.99  16.00  16.06
         16.53  16.53  16.77  16.77  16.77  17.42  17.42  17.42  18.19  18.19
         18.21  19.04  19.04  19.04  19.47  19.47  19.47  20.08  20.09  21.98
         28.46  28.48  28.48  29.94  29.98  30.07  30.08  30.08  52.03  52.05
         52.06  56.78  61.53  61.58  61.62  71.83  71.85  71.88  73.72  73.79
         87.38  87.39  87.44 102.87
 108  1 -15.63 -15.27 -15.27 -15.26 -12.58 -12.58 -12.58 -12.17  -7.49  -7.48
         -7.48  -7.07  -7.07  -7.07  -6.84  -6.84  -4.15  -3.68  -3.68  -3.67
         -2.31  -2.30  -2.30  -2.17  -2.16  -1.87  -1.87  -1.87   2.71   2.71
          2.71   3.11   4.00   4.00   4.04   4.04   4.04   5.03   5.33   5.33
          5.33   6.12   6.13   6.13   6.25   6.25   6.25   7.68   7.69   7.89
          7.90   7.90   8.70   8.70   8.71   8.76  15.99  15.99  16.00  16.06
         16.53  16.53  16.77  16.77  16.77  17.42  17.42  17.42  18.19  18.19
         18.21  19.04  19.04  19.04  19.47  19.47  19.47  20.08  20.09  21.98
         28.46  28.48  28.48  29.94  29.98  30.07  30.08  30.08  52.03  52.05
         52.06  56.78  61.53  61.58  61.62  71.83  71.85  71.88  73.72  73.79
         87.38  87.38  87.44 102.87
siesta: Fermi energy =      -5.337738 eV

siesta: Program's energy decomposition (eV):
siesta: Ebs     =      -344.180218
siesta: Eions   =      1510.441798
siesta: Ena     =       465.286696
siesta: Ekin    =       325.112988
siesta: Enl     =       111.015464
siesta: DEna    =         5.106664
siesta: DUscf   =         1.527840
siesta: DUext   =         0.000000
siesta: Exc     =      -259.579677
siesta: eta*DQ  =         0.000000
siesta: Emadel  =         0.000000
siesta: Emeta   =         0.000000
siesta: Emolmec =         0.000000
siesta: Ekinion =         0.000000
siesta: Eharris =      -861.971903
siesta: Etot    =      -861.971824
siesta: FreeEng =      -861.971824

siesta: Final energy (eV):
siesta:  Band Struct. =    -344.180218
siesta:       Kinetic =     325.112988
siesta:       Hartree =      57.858452
siesta:    Ext. field =       0.000000
siesta:   Exch.-corr. =    -259.579677
siesta:  Ion-electron =    -446.549869
siesta:       Ion-ion =    -538.813718
siesta:       Ekinion =       0.000000
siesta:         Total =    -861.971824

siesta: Stress tensor (static) (eV/Ang**3):
siesta:    -0.000226   -0.000527   -0.000526
siesta:    -0.000527   -0.000226   -0.000526
siesta:    -0.000526   -0.000526   -0.000225

siesta: Constrained stress tensor (static) (eV/Ang**3):
siesta:    -0.000226   -0.000527   -0.000526
siesta:    -0.000527   -0.000226   -0.000526
siesta:    -0.000526   -0.000526   -0.000225

siesta: Cell volume =        161.142038 Ang**3

siesta: Pressure (static):
siesta:                Solid            Molecule  Units
siesta:           0.00000246         -0.00000345  Ry/Bohr**3
siesta:           0.00022553         -0.00031690  eV/Ang**3
siesta:           0.36134824         -0.50773955  kBar
(Free)E+ p_basis*V_orbitals  =        -852.998221
(Free)Eharris+ p_basis*V_orbitals  =        -852.998838

* Maximum dynamic memory allocated : Node    0 =   102 MB

* Maximum memory occured during init_pulay_arrrays            

timer: CPU execution times:
timer:  Routine       Calls   Time/call    Tot.time        %
timer:  siesta            1    2321.197    2321.197   100.00
timer:  Setup             1       0.116       0.116     0.00
timer:  bands             3       0.553       1.660     0.07
timer:  writewave         3       0.007       0.020     0.00
timer:  KSV_init          1       0.000       0.000     0.00
timer:  IterMD           23     100.838    2319.285    99.92
timer:  hsparse          23       0.225       5.180     0.22
timer:  overlap          23       0.124       2.844     0.12
timer:  IterSCF         101      18.590    1877.597    80.89
timer:  kinefsm          46       0.127       5.848     0.25
timer:  nlefsm           46       4.989     229.507     9.89
timer:  DHSCF           124      10.307    1278.079    55.06
timer:  DHSCF1           23       0.047       1.076     0.05
timer:  DHSCF2           23       2.147      49.371     2.13
timer:  REORD           790       0.000       0.064     0.00
timer:  POISON          147       0.005       0.672     0.03
timer:  DHSCF3          124       9.070    1124.626    48.45
timer:  rhoofd          124       4.145     514.020    22.14
timer:  cellXC          124       0.012       1.428     0.06
timer:  vmat            124       4.907     608.470    26.21
timer:  MolMec           46       0.000       0.000     0.00
timer:  diagon          101       7.814     789.218    34.00
timer:  c-eigval      12801       0.019     238.555    10.28
timer:  c-buildHS     12801       0.014     179.835     7.75
timer:  cdiag         25502       0.007     180.478     7.78
timer:  cdiag1        25502       0.001      13.446     0.58
timer:  cdiag2        25502       0.002      46.750     2.01
timer:  cdiag3        25502       0.005     115.946     5.00
timer:  cdiag4        25502       0.000       3.611     0.16
timer:  c-eigvec      12701       0.024     301.219    12.98
timer:  c-buildD      12700       0.020     250.009    10.77
timer:  DHSCF4           23       4.477     102.974     4.44
timer:  dfscf            23       4.318      99.310     4.28
timer:  overfsm          23       0.125       2.881     0.12
timer:  optical           1       0.000       0.000     0.00
  

elaps: ELAPSED times:
elaps:  Routine       Calls   Time/call    Tot.time        %
elaps:  siesta            1    2333.109    2333.109   100.00
elaps:  Setup             1       0.115       0.115     0.00
elaps:  bands             3       0.555       1.666     0.07
elaps:  writewave         3       0.006       0.019     0.00
elaps:  KSV_init          1       0.001       0.001     0.00
elaps:  IterMD           23     101.356    2331.193    99.92
elaps:  hsparse          23       0.226       5.192     0.22
elaps:  overlap          23       0.125       2.867     0.12
elaps:  IterSCF         101      18.686    1887.255    80.89
elaps:  kinefsm          46       0.128       5.867     0.25
elaps:  nlefsm           46       5.014     230.637     9.89
elaps:  DHSCF           124      10.361    1284.719    55.06
elaps:  DHSCF1           23       0.047       1.082     0.05
elaps:  DHSCF2           23       2.157      49.610     2.13
elaps:  REORD           790       0.000       0.054     0.00
elaps:  POISON          147       0.005       0.669     0.03
elaps:  DHSCF3          124       9.117    1130.557    48.46
elaps:  rhoofd          124       4.165     516.504    22.14
elaps:  cellXC          124       0.011       1.421     0.06
elaps:  vmat            124       4.935     611.897    26.23
elaps:  MolMec           46       0.000       0.001     0.00
elaps:  diagon          101       7.854     793.237    34.00
elaps:  c-eigval      12801       0.019     239.740    10.28
elaps:  c-buildHS     12801       0.014     181.050     7.76
elaps:  cdiag         25502       0.007     181.000     7.76
elaps:  cdiag1        25502       0.001      13.243     0.57
elaps:  cdiag2        25502       0.002      47.175     2.02
elaps:  cdiag3        25502       0.005     116.423     4.99
elaps:  cdiag4        25502       0.000       3.450     0.15
elaps:  c-eigvec      12701       0.024     302.555    12.97
elaps:  c-buildD      12700       0.020     251.485    10.78
elaps:  DHSCF4           23       4.497     103.439     4.43
elaps:  dfscf            23       4.338      99.774     4.28
elaps:  overfsm          23       0.126       2.889     0.12
elaps:  optical           1       0.000       0.000     0.00
  
>> End of run:   9-MAY-2013  20:16:46
