Siesta Version:                                        siesta-3.2
Architecture  : x86_64-unknown-linux-gnu--unknown
Compiler flags: f95 -g -O2
SERIAL version
Siesta Version:                                        siesta-3.2
Architecture  : x86_64-unknown-linux-gnu--unknown
Compiler flags: f95 -g -O2
SERIAL version

* Running in serial mode

* Running in serial mode
>> Start of run:   9-MAY-2013  17:43:08
>> Start of run:   9-MAY-2013  17:43:08

                           ***********************       

                           ***********************       
                           *  WELCOME TO SIESTA  *       
                           ***********************       
                           *  WELCOME TO SIESTA  *       
                           ***********************       

reinit: Reading from standard input

reinit: Reading from standard input
************************** Dump of input data file ****************************
# FDF for silicon
SystemName             silicon          # Descriptive name of the system
SystemLabel            si          # Short name for naming files
NumberOfAtoms 8
NumberOfSpecies 1
%block ChemicalSpeciesLabel
1 14 Si
%endblock ChemicalSpeciesLabel
LatticeConstant  5.20 Ang
##Basis set Definition##
PAO.BasisType          split        # Type of PAO basis set
PAO.EnergyShift        50 meV
PAO.BasisSize          DZP          # (DZP) Double-z + polarization
#%block LatticeVectors
#0.500 0.500 0.000
#0.500 0.000 0.500
#0.000 0.500 0.500
#%endblock LatticeVectors
AtomicCoordinatesFormat NotScaledCartesianAng
%block AtomicCoordinatesAndAtomicSpecies
	0.00000000	0.00000000	0.00000000  1 Si  1
	1.36000000	1.36000000	1.36000000  1 Si  2
	2.72000000	2.72000000	0.00000000  1 Si  3
	4.08000000	4.08000000	1.36000000  1 Si  4
	2.72000000	0.00000000	2.72000000  1 Si  5
	4.08000000	1.36000000	4.08000000  1 Si  6
	0.00000000	2.72000000	2.72000000  1 Si  7
	1.36000000	4.08000000	4.08000000  1 Si  8
%endblock AtomicCoordinatesAndAtomicSpecies
MeshCutoff 100.0 Ry # 100, 120, 180, 260
kgrid_cutoff 30.0 Bohr # 30, 35, 40, 45
DM.Mixingweight  0.3
DM.NumberPulay    3
DM.Tolerance      1.d-3
DM.UseSaveDM      true
ElectronicTemperature 25 meV
SolutionMethod    diagon
XC.functional     LDA	    # Local Density Approximation
XC.authors        CA           # Ceperley-Alder
SpinPolarized     false
MD.TypeOfRun           CG           # Type of dynamics:
MD.VariableCell        true
MD.NumCGsteps          100          # Number of CG steps for coordinate optimization
MD.MaxCGDispl          0.2 Bohr     # Maximum atomic displacement
                                    #   in one CG step (Bohr)
MD.MaxForceTol         0.04 eV/Ang  # Tolerance in the maximum
                                    #   atomic force (Ry/Bohr)
				
##Output Specification##
WriteMDhistory         true         # Trajectory information
WriteCoorStep          true
WriteCoorXmol          true
WriteMDXmol            true
WriteEigenvalues true
WriteKbands      true
WriteBands       true
WriteWaveFunctions true
WriteMullikenPoP   1
%block BandLines
1	1.000	1.000 1.000 L
25	0.000	0.000	0.000 \Gamma
30	2.000	0.000	0.000 X
10	2.000	0.500	0.500 U
35	0.000	0.000	0.000 \Gamma
%endblock BandLines
%block WaveFuncKPoints
0.0 0.0 0.0 from 1 to 50 # > 16 = 4/2*8 (Valenzelektronen/2, Atomzahl ...)
%endblock WaveFuncKpoints
************************** End of input data file *****************************

reinit: -----------------------------------------------------------------------
reinit: System Name: silicon
reinit: -----------------------------------------------------------------------
reinit: System Label: si                                                          
reinit: -----------------------------------------------------------------------
************************** Dump of input data file ****************************
************************** End of input data file *****************************

reinit: -----------------------------------------------------------------------
reinit: System Name: 
reinit: -----------------------------------------------------------------------
reinit: System Label: siesta                                                      
reinit: -----------------------------------------------------------------------

initatom: Reading input for the pseudopotentials and atomic orbitals ----------

initatom: Reading input for the pseudopotentials and atomic orbitals ----------
 Species number:            1  Label: Si Atomic number:          14
Ground state valence configuration:  Species number:            1  Label: Si Atomic number:          14
Ground state valence configuration:   3s02  3p02
Reading pseudopotential information in formatted form from Si.psf

Valence configuration for pseudopotential generation:
3s( 2.00) rc: 1.75
3p( 2.00) rc: 1.94
3d( 0.00) rc: 2.09
4f( 0.00) rc: 2.09
  3s02  3p02
Reading pseudopotential information in formatted form from Si.psf

Valence configuration for pseudopotential generation:
3s( 2.00) rc: 1.75
3p( 2.00) rc: 1.94
3d( 0.00) rc: 2.09
4f( 0.00) rc: 2.09
For Si, standard SIESTA heuristics set lmxkb to 3
 (one more than the basis l, including polarization orbitals).
Use PS.lmax or PS.KBprojectors blocks to override.
For Si, standard SIESTA heuristics set lmxkb to 3
 (one more than the basis l, including polarization orbitals).
Use PS.lmax or PS.KBprojectors blocks to override.

<basis_specs>
===============================================================================
Si                   Z=  14    Mass=  28.090        Charge= 0.17977+309
Lmxo=1 Lmxkb= 3    BasisType=split      Semic=F
L=0  Nsemic=0  Cnfigmx=3
          n=1  nzeta=2  polorb=0
            splnorm:   0.15000    
               vcte:    0.0000    
               rinn:    0.0000    

                rcs:    0.0000      0.0000    
            lambdas:    1.0000      1.0000    
L=1  Nsemic=0  Cnfigmx=3
          n=1  nzeta=2  polorb=1
            splnorm:   0.15000    
<basis_specs>
===============================================================================
               vcte:    0.0000    
               rinn:    0.0000    
Si                   Z=  14    Mass=  28.090        Charge= 0.17977+309
Lmxo=1 Lmxkb= 3    BasisType=split      Semic=F
                rcs:    0.0000      0.0000    
            lambdas:    1.0000      1.0000    
L=0  Nsemic=0  Cnfigmx=3
          n=1  nzeta=2  polorb=0
-------------------------------------------------------------------------------
L=0  Nkbl=1  erefs: 0.17977+309
            splnorm:   0.15000    
L=1  Nkbl=1  erefs: 0.17977+309
               vcte:    0.0000    
               rinn:    0.0000    
                rcs:    0.0000      0.0000    
L=2  Nkbl=1  erefs: 0.17977+309
            lambdas:    1.0000      1.0000    
L=1  Nsemic=0  Cnfigmx=3
          n=1  nzeta=2  polorb=1
            splnorm:   0.15000    
L=3  Nkbl=1  erefs: 0.17977+309
               vcte:    0.0000    
===============================================================================
</basis_specs>

               rinn:    0.0000    
                rcs:    0.0000      0.0000    
            lambdas:    1.0000      1.0000    
-------------------------------------------------------------------------------
L=0  Nkbl=1  erefs: 0.17977+309
L=1  Nkbl=1  erefs: 0.17977+309
L=2  Nkbl=1  erefs: 0.17977+309
L=3  Nkbl=1  erefs: 0.17977+309
===============================================================================
</basis_specs>

atom: Called for Si                    (Z =  14)

read_vps: Pseudopotential generation method:
read_vps: ATM3      Troullier-Martins                       
Total valence charge:    4.00000

xc_check: Exchange-correlation functional:
xc_check: Ceperley-Alder
atom: Called for Si                    (Z =  14)

read_vps: Pseudopotential generation method:
read_vps: ATM3      Troullier-Martins                       
Total valence charge:    4.00000

xc_check: Exchange-correlation functional:
xc_check: Ceperley-Alder
V l=0 = -2*Zval/r beyond r=  2.5494
V l=1 = -2*Zval/r beyond r=  2.5494
V l=2 = -2*Zval/r beyond r=  2.5494
V l=3 = -2*Zval/r beyond r=  2.5494
All V_l potentials equal beyond r=  2.0613
This should be close to max(r_c) in ps generation
All pots = -2*Zval/r beyond r=  2.5494

VLOCAL1: 99.0% of the norm of Vloc inside     10.216 Ry
VLOCAL1: 99.9% of the norm of Vloc inside     23.282 Ry
V l=0 = -2*Zval/r beyond r=  2.5494
V l=1 = -2*Zval/r beyond r=  2.5494
V l=2 = -2*Zval/r beyond r=  2.5494
V l=3 = -2*Zval/r beyond r=  2.5494
All V_l potentials equal beyond r=  2.0613
This should be close to max(r_c) in ps generation
All pots = -2*Zval/r beyond r=  2.5494

VLOCAL1: 99.0% of the norm of Vloc inside     10.216 Ry
VLOCAL1: 99.9% of the norm of Vloc inside     23.282 Ry
atom: Maximum radius for 4*pi*r*r*local-pseudopot. charge    2.45560
atom: Maximum radius for 4*pi*r*r*local-pseudopot. charge    2.45560
atom: Maximum radius for r*vlocal+2*Zval:    2.14012
atom: Maximum radius for r*vlocal+2*Zval:    2.14012
GHOST: No ghost state for L =  0
GHOST: No ghost state for L =  0
GHOST: No ghost state for L =  1
GHOST: No ghost state for L =  1
GHOST: No ghost state for L =  2
GHOST: No ghost state for L =  2
GHOST: No ghost state for L =  3
GHOST: No ghost state for L =  3

KBgen: Kleinman-Bylander projectors: 

KBgen: Kleinman-Bylander projectors: 
   l= 0   rc=  2.782581   el= -0.796617   Ekb=  4.840502   kbcos=  0.288423
   l= 0   rc=  2.782581   el= -0.796617   Ekb=  4.840502   kbcos=  0.288423
   l= 1   rc=  2.888916   el= -0.307040   Ekb=  1.512733   kbcos=  0.296968
   l= 1   rc=  2.888916   el= -0.307040   Ekb=  1.512733   kbcos=  0.296968
   l= 2   rc=  2.962054   el=  0.002313   Ekb= -2.156507   kbcos= -0.061834
   l= 2   rc=  2.962054   el=  0.002313   Ekb= -2.156507   kbcos= -0.061834
   l= 3   rc=  3.192765   el=  0.003402   Ekb= -0.600958   kbcos= -0.007408
   l= 3   rc=  3.192765   el=  0.003402   Ekb= -0.600958   kbcos= -0.007408

KBgen: Total number of  Kleinman-Bylander projectors:   16

KBgen: Total number of  Kleinman-Bylander projectors:   16
atom: -------------------------------------------------------------------------

atom: SANKEY-TYPE ORBITALS:
atom: -------------------------------------------------------------------------

atom: SANKEY-TYPE ORBITALS:
atom: Selected multiple-zeta basis: split     
atom: Selected multiple-zeta basis: split     

SPLIT: Orbitals with angular momentum L= 0

SPLIT: Basis orbitals for state 3s

SPLIT: Orbitals with angular momentum L= 0

SPLIT: Basis orbitals for state 3s

SPLIT: PAO cut-off radius determined from an
SPLIT: energy shift=  0.003675 Ry

SPLIT: PAO cut-off radius determined from an
SPLIT: energy shift=  0.003675 Ry

   izeta = 1
                 lambda =    1.000000
                     rc =    6.116033
                 energy =   -0.793486
                kinetic =    0.528761
    potential(screened) =   -1.322246
       potential(ionic) =   -3.766038

   izeta = 1
                 lambda =    1.000000
                     rc =    6.116033
                 energy =   -0.793486
                kinetic =    0.528761
    potential(screened) =   -1.322246
       potential(ionic) =   -3.766038

   izeta = 2
                 rmatch =    4.530823
              splitnorm =    0.150000
                 energy =   -0.697320
                kinetic =    0.853435
    potential(screened) =   -1.550756
       potential(ionic) =   -4.120809

   izeta = 2
                 rmatch =    4.530823
              splitnorm =    0.150000
                 energy =   -0.697320
                kinetic =    0.853435
    potential(screened) =   -1.550756
       potential(ionic) =   -4.120809

SPLIT: Orbitals with angular momentum L= 1

SPLIT: Basis orbitals for state 3p

SPLIT: PAO cut-off radius determined from an
SPLIT: energy shift=  0.003675 Ry

SPLIT: Orbitals with angular momentum L= 1

SPLIT: Basis orbitals for state 3p

SPLIT: PAO cut-off radius determined from an
SPLIT: energy shift=  0.003675 Ry

   izeta = 1
                 lambda =    1.000000
                     rc =    7.853192
                 energy =   -0.303674
                kinetic =    0.798475
    potential(screened) =   -1.102149
       potential(ionic) =   -3.307324

   izeta = 1
                 lambda =    1.000000
                     rc =    7.853192
                 energy =   -0.303674
                kinetic =    0.798475
    potential(screened) =   -1.102149
       potential(ionic) =   -3.307324

   izeta = 2
                 rmatch =    5.397360
              splitnorm =    0.150000
                 energy =   -0.229357
                kinetic =    1.170483
    potential(screened) =   -1.399841
       potential(ionic) =   -3.814095

   izeta = 2
                 rmatch =    5.397360
              splitnorm =    0.150000
                 energy =   -0.229357
                kinetic =    1.170483
    potential(screened) =   -1.399841
       potential(ionic) =   -3.814095

POLgen: Perturbative polarization orbital with L=  2

POLgen: Polarization orbital for state 3p

POLgen: Perturbative polarization orbital with L=  2

POLgen: Polarization orbital for state 3p

   izeta = 1
                     rc =    7.853192
                 energy =    0.331669
                kinetic =    1.088595
    potential(screened) =   -0.756926
       potential(ionic) =   -2.714870

   izeta = 1
                     rc =    7.853192
                 energy =    0.331669
                kinetic =    1.088595
    potential(screened) =   -0.756926
atom: Total number of Sankey-type orbitals: 13
       potential(ionic) =   -2.714870

atm_pop: Valence configuration (for local Pseudopot. screening):
 3s( 2.00)                                                            
 3p( 2.00)                                                            
Vna: chval, zval:    4.00000   4.00000

Vna:  Cut-off radius for the neutral-atom potential:   7.853192
atom: Total number of Sankey-type orbitals: 13

atm_pop: Valence configuration (for local Pseudopot. screening):
 3s( 2.00)                                                            
 3p( 2.00)                                                            
Vna: chval, zval:    4.00000   4.00000

Vna:  Cut-off radius for the neutral-atom potential:   7.853192

atom: _________________________________________________________________________

prinput: Basis input ----------------------------------------------------------

PAO.BasisType split     

%block ChemicalSpeciesLabel
    1   14 Si                      # Species index, atomic number, species label
%endblock ChemicalSpeciesLabel

%block PAO.Basis                 # Define Basis set
Si                    2                    # Species label, number of l-shells
 n=3   0   2                         # n, l, Nzeta 
   6.116      4.531   
   1.000      1.000   
 n=3   1   2 P   1                   # n, l, Nzeta, Polarization, NzetaPol
   7.853      5.397   
   1.000      1.000   
%endblock PAO.Basis

prinput: ----------------------------------------------------------------------


atom: _________________________________________________________________________

prinput: Basis input ----------------------------------------------------------

PAO.BasisType split     

%block ChemicalSpeciesLabel
    1   14 Si                      # Species index, atomic number, species label
%endblock ChemicalSpeciesLabel

%block PAO.Basis                 # Define Basis set
Si                    2                    # Species label, number of l-shells
 n=3   0   2                         # n, l, Nzeta 
   6.116      4.531   
   1.000      1.000   
 n=3   1   2 P   1                   # n, l, Nzeta, Polarization, NzetaPol
   7.853      5.397   
   1.000      1.000   
%endblock PAO.Basis

prinput: ----------------------------------------------------------------------

coor:   Atomic-coordinates input format  =     Cartesian coordinates
coor:                                          (in Angstroms)

siesta: Atomic coordinates (Bohr) and species
siesta:      0.00000   0.00000   0.00000  1        1
siesta:      2.57003   2.57003   2.57003  1        2
siesta:      5.14006   5.14006   0.00000  1        3
siesta:      7.71009   7.71009   2.57003  1        4
siesta:      5.14006   0.00000   5.14006  1        5
siesta:      7.71009   2.57003   7.71009  1        6
siesta:      0.00000   5.14006   5.14006  1        7
siesta:      2.57003   7.71009   7.71009  1        8

siesta: System type = bulk      
coor:   Atomic-coordinates input format  =     Cartesian coordinates
coor:                                          (in Angstroms)

initatomlists: Number of atoms, orbitals, and projectors:      8   104   128

siesta: ******************** Simulation parameters ****************************
siesta:
siesta: The following are some of the parameters of the simulation.
siesta: A complete list of the parameters used, including default values,
siesta: can be found in file out.fdf
siesta:
redata: Non-Collinear-spin run           =     F
redata: SpinPolarized (Up/Down) run      =     F
redata: Number of spin components        =     1
redata: Long output                      =     F
redata: Number of Atomic Species         =        1
redata: Charge density info will appear in .RHO file
redata: Write Mulliken Pop.              =     Atomic and Orbital charges

siesta: Atomic coordinates (Bohr) and species
siesta:      0.00000   0.00000   0.00000  1        1
siesta:      2.57003   2.57003   2.57003  1        2
siesta:      5.14006   5.14006   0.00000  1        3
siesta:      7.71009   7.71009   2.57003  1        4
siesta:      5.14006   0.00000   5.14006  1        5
siesta:      7.71009   2.57003   7.71009  1        6
siesta:      0.00000   5.14006   5.14006  1        7
siesta:      2.57003   7.71009   7.71009  1        8

siesta: System type = bulk      
redata: Mesh Cutoff                      =   100.0000  Ry
redata: Net charge of the system         =     0.0000 |e|
redata: Max. number of SCF Iter          =       50

initatomlists: Number of atoms, orbitals, and projectors:      8   104   128
redata: Performing Pulay mixing using    =     3 iterations

siesta: ******************** Simulation parameters ****************************
siesta:
siesta: The following are some of the parameters of the simulation.
siesta: A complete list of the parameters used, including default values,
siesta: can be found in file out.fdf
siesta:
redata: Mix DM in first SCF step ?       =     F
redata: Write Pulay info on disk?        =     F
redata: Non-Collinear-spin run           =     F
redata: SpinPolarized (Up/Down) run      =     F
redata: Number of spin components        =     1
redata: Discard 1st Pulay DM after  kick =     F
redata: New DM Mixing Weight             =     0.3000
redata: Long output                      =     F
redata: Number of Atomic Species         =        1
redata: New DM Occupancy tolerance       = 0.000000000001
redata: Charge density info will appear in .RHO file
redata: Write Mulliken Pop.              =     Atomic and Orbital charges
redata: No kicks to SCF
redata: DM Mixing Weight for Kicks       =     0.5000
redata: DM Tolerance for SCF             =     0.001000
redata: Require Energy convergence for SCF =     F
redata: Mesh Cutoff                      =   100.0000  Ry
redata: DM Energy tolerance for SCF      =     0.000100 eV
redata: Net charge of the system         =     0.0000 |e|
redata: Require Harris convergence for SCF =     F
redata: DM Harris energy tolerance for SCF =     0.000100 eV
redata: Max. number of SCF Iter          =       50
redata: Using Saved Data (generic)   =     F
redata: Use continuation files for DM    =     T
redata: Neglect nonoverlap interactions  =     F
redata: Performing Pulay mixing using    =     3 iterations
redata: Mix DM in first SCF step ?       =     F
redata: Method of Calculation            =     Diagonalization
redata: Divide and Conquer               =     T
redata: Write Pulay info on disk?        =     F
redata: Discard 1st Pulay DM after  kick =     F
redata: Electronic Temperature           =     0.0018  Ry
redata: New DM Mixing Weight             =     0.3000
redata: Fix the spin of the system       =     F
redata: New DM Occupancy tolerance       = 0.000000000001
redata: No kicks to SCF
redata: DM Mixing Weight for Kicks       =     0.5000
redata: DM Tolerance for SCF             =     0.001000
redata: Require Energy convergence for SCF =     F
redata: DM Energy tolerance for SCF      =     0.000100 eV
redata: Require Harris convergence for SCF =     F
redata: DM Harris energy tolerance for SCF =     0.000100 eV
redata: Using Saved Data (generic)   =     F
redata: Use continuation files for DM    =     T
redata: Neglect nonoverlap interactions  =     F
redata: Method of Calculation            =     Diagonalization
redata: Divide and Conquer               =     T
redata: Electronic Temperature           =     0.0018  Ry
redata: Fix the spin of the system       =     F
redata: Dynamics option                  =     CG coord. optimization
redata: Variable cell                    =     T
redata: Use continuation files for CG    =     F
redata: Max atomic displ per move        =     0.2000  Bohr
redata: Maximum number of CG moves       =      100
redata: Force tolerance                  =     0.0016  Ry/Bohr
redata: Stress tolerance                 =     1.0000  GPa
redata: Dynamics option                  =     CG coord. optimization
redata: Variable cell                    =     T
redata: Use continuation files for CG    =     F
redata: Max atomic displ per move        =     0.2000  Bohr
redata: Maximum number of CG moves       =      100
redata: Force tolerance                  =     0.0016  Ry/Bohr
redata: Stress tolerance                 =     1.0000  GPa
redata: ***********************************************************************
redata: ***********************************************************************
Total number of electrons:    32.000000
Total ionic charge:    32.000000
Total number of electrons:    32.000000
Total ionic charge:    32.000000
 Kpoints in:          196 . Kpoints trimmed:          172
 Kpoints in:          196 . Kpoints trimmed:          172

siesta: k-grid: Number of k-points =   172
siesta: k-grid: Cutoff (effective) =    18.200 Ang
siesta: k-grid: Supercell and displacements
siesta: k-grid:    0   7   0      0.000
siesta: k-grid:    0   0   7      0.000
siesta: k-grid:    7   0   0      0.000

siesta: k-grid: Number of k-points =   172
siesta: k-grid: Cutoff (effective) =    18.200 Ang
siesta: k-grid: Supercell and displacements
siesta: k-grid:    0   7   0      0.000
siesta: k-grid:    0   0   7      0.000
siesta: k-grid:    7   0   0      0.000
Naive supercell factors:     5    5    5

superc: Internal auxiliary supercell:     5 x     5 x     5  =     125
superc: Number of atoms, orbitals, and projectors:   1000  13000  16000

* Maximum dynamic memory allocated =     2 MB

siesta:                 ==============================
                            Begin CG move =      0
                        ==============================

outcoor: Atomic coordinates (Ang):                          
    0.00000000    0.00000000    0.00000000   1       1  Si
    1.36000000    1.36000000    1.36000000   1       2  Si
    2.72000000    2.72000000    0.00000000   1       3  Si
    4.08000000    4.08000000    1.36000000   1       4  Si
    2.72000000    0.00000000    2.72000000   1       5  Si
    4.08000000    1.36000000    4.08000000   1       6  Si
    0.00000000    2.72000000    2.72000000   1       7  Si
    1.36000000    4.08000000    4.08000000   1       8  Si
Naive supercell factors:     5    5    5

superc: Internal auxiliary supercell:     5 x     5 x     5  =     125
superc: Number of atoms, orbitals, and projectors:   1000  13000  16000

outcell: Unit cell vectors (Ang):
        5.200000    0.000000    0.000000
        0.000000    5.200000    0.000000
        0.000000    0.000000    5.200000

outcell: Cell vector modules (Ang)   :    5.200000    5.200000    5.200000
outcell: Cell angles (23,13,12) (deg):     90.0000     90.0000     90.0000
outcell: Cell volume (Ang**3)        :    140.6080

superc: Internal auxiliary supercell:     5 x     5 x     5  =     125
superc: Number of atoms, orbitals, and projectors:   1000  13000  16000

* Maximum dynamic memory allocated =     2 MB

siesta:                 ==============================
                            Begin CG move =      0
                        ==============================

outcoor: Atomic coordinates (Ang):                          
    0.00000000    0.00000000    0.00000000   1       1  Si
    1.36000000    1.36000000    1.36000000   1       2  Si
    2.72000000    2.72000000    0.00000000   1       3  Si
    4.08000000    4.08000000    1.36000000   1       4  Si
    2.72000000    0.00000000    2.72000000   1       5  Si
    4.08000000    1.36000000    4.08000000   1       6  Si
    0.00000000    2.72000000    2.72000000   1       7  Si
    1.36000000    4.08000000    4.08000000   1       8  Si

superc: Internal auxiliary supercell:     5 x     5 x     5  =     125
superc: Number of atoms, orbitals, and projectors:   1000  13000  16000

outcell: Unit cell vectors (Ang):
        5.200000    0.000000    0.000000
        0.000000    5.200000    0.000000
        0.000000    0.000000    5.200000

outcell: Cell vector modules (Ang)   :    5.200000    5.200000    5.200000
outcell: Cell angles (23,13,12) (deg):     90.0000     90.0000     90.0000
outcell: Cell volume (Ang**3)        :    140.6080
New_DM. Step:     1
Initializing Density Matrix...
New_DM. Step:     1
Initializing Density Matrix...

InitMesh: MESH =    32 x    32 x    32 =       32768
InitMesh: Mesh cutoff (required, used) =   100.000   104.663 Ry

InitMesh: MESH =    32 x    32 x    32 =       32768
InitMesh: Mesh cutoff (required, used) =   100.000   104.663 Ry

* Maximum dynamic memory allocated =    80 MB

* Maximum dynamic memory allocated =    80 MB

stepf: Fermi-Dirac step function

stepf: Fermi-Dirac step function

siesta: Program's energy decomposition (eV):
siesta: Ebs     =      -376.603350
siesta: Eions   =      1510.441798
siesta: Ena     =       456.083471
siesta: Ekin    =       288.938730
siesta: Enl     =       142.171607
siesta: DEna    =         0.000001
siesta: DUscf   =         0.000000
siesta: DUext   =         0.000000
siesta: Exc     =      -262.313343
siesta: eta*DQ  =         0.000000
siesta: Emadel  =         0.000000
siesta: Emeta   =         0.000000
siesta: Emolmec =         0.000000
siesta: Ekinion =         0.000000
siesta: Eharris =      -860.303476
siesta: Etot    =      -885.561332
siesta: FreeEng =      -885.561332

siesta: iscf   Eharris(eV)      E_KS(eV)   FreeEng(eV)   dDmax  Ef(eV)
siesta:    1     -860.3035     -885.5613     -885.5613  1.7006 -5.8834
timer: Routine,Calls,Time,% = IterSCF        1      31.258  97.79
elaps: Routine,Calls,Wall,% = IterSCF        1      31.406  97.78

siesta: Program's energy decomposition (eV):
siesta: Ebs     =      -376.603350
siesta: Eions   =      1510.441798
siesta: Ena     =       456.083471
siesta: Ekin    =       288.938730
siesta: Enl     =       142.171607
siesta: DEna    =         0.000001
siesta: DUscf   =         0.000000
siesta: DUext   =         0.000000
siesta: Exc     =      -262.313343
siesta: eta*DQ  =         0.000000
siesta: Emadel  =         0.000000
siesta: Emeta   =         0.000000
siesta: Emolmec =         0.000000
siesta: Ekinion =         0.000000
siesta: Eharris =      -860.303476
siesta: Etot    =      -885.561332
siesta: FreeEng =      -885.561332

siesta: iscf   Eharris(eV)      E_KS(eV)   FreeEng(eV)   dDmax  Ef(eV)
siesta:    1     -860.3035     -885.5613     -885.5613  1.7006 -5.8834
timer: Routine,Calls,Time,% = IterSCF        1      31.294  97.78
elaps: Routine,Calls,Wall,% = IterSCF        1      31.431  97.77
siesta:    2     -859.7519     -859.4923     -859.4927  0.1794 -5.5893
siesta:    2     -859.7519     -859.4923     -859.4927  0.1794 -5.5893
siesta:    3     -859.6799     -861.4336     -861.4347  0.1091 -5.6349
siesta:    3     -859.6799     -861.4336     -861.4347  0.1091 -5.6349
siesta:    4     -859.6732     -859.7429     -859.7439  0.0091 -5.6462
siesta:    4     -859.6732     -859.7429     -859.7439  0.0091 -5.6462
siesta:    5     -859.6729     -859.6799     -859.6810  0.0040 -5.6474
siesta:    5     -859.6729     -859.6799     -859.6810  0.0040 -5.6474
siesta:    6     -859.6727     -859.6967     -859.6979  0.0034 -5.6484
siesta:    6     -859.6727     -859.6967     -859.6979  0.0034 -5.6484
siesta:    7     -859.6728     -859.6968     -859.6979  0.0024 -5.6485
siesta:    7     -859.6728     -859.6968     -859.6979  0.0024 -5.6485
siesta:    8     -859.6728     -859.6869     -859.6881  0.0011 -5.6484
siesta:    8     -859.6728     -859.6869     -859.6881  0.0011 -5.6484
siesta:    9     -859.6728     -859.6797     -859.6809  0.0005 -5.6483
siesta:    9     -859.6728     -859.6797     -859.6809  0.0005 -5.6483

siesta: E_KS(eV) =             -859.6734

siesta: E_KS - E_eggbox =      -859.6734

siesta: Atomic forces (eV/Ang):
----------------------------------------
   Tot   -0.000111   -0.000107   -0.000141
----------------------------------------
   Max    2.444508
   Res    1.655483    sqrt( Sum f_i^2 / 3N )
----------------------------------------
   Max    2.444508    constrained

Stress-tensor-Voigt (kbar):     -185.47     -185.47     -185.47       51.43       51.43       51.43
(Free)E + p*V (eV/cell)     -843.3974
Target enthalpy (eV/cell)     -859.6745

siesta: Stress tensor (static) (eV/Ang**3):
        -0.115762    0.032101    0.032101
         0.032101   -0.115762    0.032101
         0.032101    0.032101   -0.115763

siesta: Pressure (static):        185.47388128  kBar

siesta: Stress tensor (total) (eV/Ang**3):
        -0.115762    0.032101    0.032101
         0.032101   -0.115762    0.032101
         0.032101    0.032101   -0.115763

siesta: Pressure (total):        185.47388128  kBar

mulliken: Mulliken Atomic and Orbital Populations:

Species: Si                  
Atom  Qatom  Qorb
               3s      3s      3py     3pz     3px     3py     3pz     3px     
               3Pdxy   3Pdyz   3Pdz2   3Pdxz   3Pdx2-y2
   1  4.113   0.381   0.715   0.081   0.081   0.081   0.679   0.679   0.679
              0.166   0.166   0.120   0.166   0.120
   2  3.930   0.654   0.570   0.134   0.134   0.134   0.583   0.583   0.583
              0.132   0.132   0.079   0.132   0.079
   3  3.963   0.566   0.613   0.084   0.165   0.084   0.633   0.582   0.633
              0.148   0.139   0.082   0.139   0.098
   4  4.022   0.478   0.659   0.125   0.027   0.125   0.629   0.688   0.629
              0.148   0.154   0.115   0.154   0.093
   5  3.963   0.566   0.613   0.165   0.084   0.084   0.582   0.633   0.633
              0.139   0.139   0.094   0.148   0.086
   6  4.022   0.478   0.659   0.027   0.125   0.125   0.688   0.629   0.629
              0.154   0.154   0.099   0.148   0.109
   7  3.963   0.566   0.613   0.084   0.084   0.165   0.633   0.633   0.582
              0.139   0.148   0.094   0.139   0.086
   8  4.022   0.478   0.659   0.125   0.125   0.027   0.629   0.629   0.688
              0.154   0.148   0.099   0.154   0.109

mulliken: Qtot =       32.000

cgvc: No target stress found, assuming hydrostatic MD.TargetPressure.

cgvc: Target stress (kBar)
cgvc:        -0.000       0.000       0.000
cgvc:         0.000      -0.000       0.000
cgvc:         0.000       0.000      -0.000

* Maximum dynamic memory allocated =    81 MB

siesta:                 ==============================
                            Begin CG move =      1
                        ==============================

outcoor: Atomic coordinates (Ang):                          
    0.02266372    0.02266369    0.02266371   1       1  Si
    1.36736991    1.36736989    1.36736984   1       2  Si
    2.73015771    2.73015769    0.01066568   1       3  Si
    4.07169747    4.07169747    1.36567481   1       4  Si
    2.73015768    0.01066588    2.73015763   1       5  Si
    4.07169754    1.36567497    4.07169760   1       6  Si
    0.01066595    2.73015772    2.73015766   1       7  Si
    1.36567496    4.07169757    4.07169765   1       8  Si
 Kpoints in:          196 . Kpoints trimmed:          172

siesta: k-grid: Number of k-points =   172
siesta: k-grid: Cutoff (effective) =    18.325 Ang
siesta: k-grid: Supercell and displacements
siesta: k-grid:    0   7   0      0.000
siesta: k-grid:    7   0   0      0.000
siesta: k-grid:    0   0   7      0.000
Naive supercell factors:     5    5    5

superc: Internal auxiliary supercell:     5 x     5 x     5  =     125
superc: Number of atoms, orbitals, and projectors:   1000  13000  16000

outcell: Unit cell vectors (Ang):
        5.235830   -0.009935   -0.009935
       -0.009935    5.235830   -0.009935
       -0.009935   -0.009935    5.235830

outcell: Cell vector modules (Ang)   :    5.235849    5.235849    5.235849
outcell: Cell angles (23,13,12) (deg):     90.2172     90.2172     90.2172
outcell: Cell volume (Ang**3)        :    143.5330
New_DM. Step:     2
Re-using DM from previous geometry...
Re-using DM without extrapolation (not allowed)
Density Matrix sparsity pattern changed.

siesta: E_KS(eV) =             -859.6734

siesta: E_KS - E_eggbox =      -859.6734

siesta: Atomic forces (eV/Ang):
----------------------------------------
   Tot   -0.000111   -0.000107   -0.000141
----------------------------------------
   Max    2.444508
   Res    1.655483    sqrt( Sum f_i^2 / 3N )
----------------------------------------
   Max    2.444508    constrained

Stress-tensor-Voigt (kbar):     -185.47     -185.47     -185.47       51.43       51.43       51.43
(Free)E + p*V (eV/cell)     -843.3974
Target enthalpy (eV/cell)     -859.6745

siesta: Stress tensor (static) (eV/Ang**3):
        -0.115762    0.032101    0.032101
         0.032101   -0.115762    0.032101
         0.032101    0.032101   -0.115763

siesta: Pressure (static):        185.47388128  kBar

siesta: Stress tensor (total) (eV/Ang**3):
        -0.115762    0.032101    0.032101
         0.032101   -0.115762    0.032101
         0.032101    0.032101   -0.115763

siesta: Pressure (total):        185.47388128  kBar

mulliken: Mulliken Atomic and Orbital Populations:

Species: Si                  
Atom  Qatom  Qorb
               3s      3s      3py     3pz     3px     3py     3pz     3px     
               3Pdxy   3Pdyz   3Pdz2   3Pdxz   3Pdx2-y2
   1  4.113   0.381   0.715   0.081   0.081   0.081   0.679   0.679   0.679
              0.166   0.166   0.120   0.166   0.120
   2  3.930   0.654   0.570   0.134   0.134   0.134   0.583   0.583   0.583
              0.132   0.132   0.079   0.132   0.079
   3  3.963   0.566   0.613   0.084   0.165   0.084   0.633   0.582   0.633
              0.148   0.139   0.082   0.139   0.098
   4  4.022   0.478   0.659   0.125   0.027   0.125   0.629   0.688   0.629
              0.148   0.154   0.115   0.154   0.093
   5  3.963   0.566   0.613   0.165   0.084   0.084   0.582   0.633   0.633
              0.139   0.139   0.094   0.148   0.086
   6  4.022   0.478   0.659   0.027   0.125   0.125   0.688   0.629   0.629
              0.154   0.154   0.099   0.148   0.109
   7  3.963   0.566   0.613   0.084   0.084   0.165   0.633   0.633   0.582
              0.139   0.148   0.094   0.139   0.086
   8  4.022   0.478   0.659   0.125   0.125   0.027   0.629   0.629   0.688
              0.154   0.148   0.099   0.154   0.109

mulliken: Qtot =       32.000

cgvc: No target stress found, assuming hydrostatic MD.TargetPressure.

cgvc: Target stress (kBar)
cgvc:        -0.000       0.000       0.000
cgvc:         0.000      -0.000       0.000
cgvc:         0.000       0.000      -0.000

* Maximum dynamic memory allocated =    81 MB

siesta:                 ==============================
                            Begin CG move =      1
                        ==============================

outcoor: Atomic coordinates (Ang):                          
    0.02266372    0.02266369    0.02266371   1       1  Si
    1.36736991    1.36736989    1.36736984   1       2  Si
    2.73015771    2.73015769    0.01066568   1       3  Si
    4.07169747    4.07169747    1.36567481   1       4  Si
    2.73015768    0.01066588    2.73015763   1       5  Si
    4.07169754    1.36567497    4.07169760   1       6  Si
    0.01066595    2.73015772    2.73015766   1       7  Si
    1.36567496    4.07169757    4.07169765   1       8  Si
 Kpoints in:          196 . Kpoints trimmed:          172

siesta: k-grid: Number of k-points =   172
siesta: k-grid: Cutoff (effective) =    18.325 Ang
siesta: k-grid: Supercell and displacements
siesta: k-grid:    0   7   0      0.000
siesta: k-grid:    7   0   0      0.000
siesta: k-grid:    0   0   7      0.000
Naive supercell factors:     5    5    5

superc: Internal auxiliary supercell:     5 x     5 x     5  =     125
superc: Number of atoms, orbitals, and projectors:   1000  13000  16000

outcell: Unit cell vectors (Ang):
        5.235830   -0.009935   -0.009935
       -0.009935    5.235830   -0.009935
       -0.009935   -0.009935    5.235830

outcell: Cell vector modules (Ang)   :    5.235849    5.235849    5.235849
outcell: Cell angles (23,13,12) (deg):     90.2172     90.2172     90.2172
outcell: Cell volume (Ang**3)        :    143.5330
New_DM. Step:     2
Re-using DM from previous geometry...
Re-using DM without extrapolation (not allowed)
Density Matrix sparsity pattern changed.

InitMesh: MESH =    32 x    32 x    32 =       32768
InitMesh: Mesh cutoff (required, used) =   100.000   103.238 Ry

InitMesh: MESH =    32 x    32 x    32 =       32768
InitMesh: Mesh cutoff (required, used) =   100.000   103.238 Ry

siesta: iscf   Eharris(eV)      E_KS(eV)   FreeEng(eV)   dDmax  Ef(eV)
siesta:    1     -860.6170     -859.5791     -859.5802  0.0373 -5.6106

siesta: iscf   Eharris(eV)      E_KS(eV)   FreeEng(eV)   dDmax  Ef(eV)
siesta:    1     -860.6170     -859.5791     -859.5802  0.0373 -5.6106
siesta:    2     -860.6614     -860.5728     -860.5736  0.0356 -5.5780
siesta:    2     -860.6614     -860.5728     -860.5736  0.0356 -5.5780
siesta:    3     -860.6024     -860.4801     -860.4808  0.0072 -5.5964
siesta:    3     -860.6024     -860.4801     -860.4808  0.0072 -5.5964
siesta:    4     -860.6021     -860.5873     -860.5880  0.0005 -5.5980
siesta:    4     -860.6021     -860.5873     -860.5880  0.0005 -5.5980

siesta: E_KS(eV) =             -860.5923

siesta: Atomic forces (eV/Ang):
----------------------------------------
   Tot    0.000854    0.000857    0.000828
----------------------------------------
   Max    1.619808
   Res    1.149615    sqrt( Sum f_i^2 / 3N )
----------------------------------------
   Max    1.619808    constrained

Stress-tensor-Voigt (kbar):     -145.35     -145.35     -145.35       27.39       27.39       27.39
(Free)E + p*V (eV/cell)     -847.5717
Target enthalpy (eV/cell)     -860.5931

siesta: Stress tensor (static) (eV/Ang**3):
        -0.090721    0.017093    0.017093
         0.017093   -0.090721    0.017093
         0.017093    0.017093   -0.090721

siesta: Pressure (static):        145.35220052  kBar

siesta: Stress tensor (total) (eV/Ang**3):
        -0.090721    0.017093    0.017093
         0.017093   -0.090721    0.017093
         0.017093    0.017093   -0.090721

siesta: Pressure (total):        145.35220052  kBar

mulliken: Mulliken Atomic and Orbital Populations:

Species: Si                  
Atom  Qatom  Qorb
               3s      3s      3py     3pz     3px     3py     3pz     3px     
               3Pdxy   3Pdyz   3Pdz2   3Pdxz   3Pdx2-y2
   1  4.068   0.443   0.678   0.098   0.098   0.098   0.656   0.656   0.656
              0.157   0.157   0.107   0.157   0.107
   2  3.956   0.648   0.571   0.152   0.152   0.152   0.577   0.577   0.577
              0.131   0.131   0.079   0.131   0.079
   3  3.977   0.574   0.606   0.108   0.170   0.108   0.619   0.580   0.619
              0.144   0.137   0.082   0.137   0.093
   4  4.015   0.506   0.641   0.136   0.056   0.136   0.617   0.666   0.617
              0.144   0.150   0.105   0.150   0.090
   5  3.977   0.574   0.606   0.170   0.108   0.108   0.580   0.619   0.619
              0.137   0.137   0.091   0.144   0.085
   6  4.015   0.506   0.641   0.056   0.136   0.136   0.666   0.617   0.617
              0.150   0.150   0.094   0.144   0.101
   7  3.977   0.574   0.606   0.108   0.108   0.170   0.619   0.619   0.580
              0.137   0.144   0.091   0.137   0.085
   8  4.015   0.506   0.641   0.136   0.136   0.056   0.617   0.617   0.666
              0.150   0.144   0.094   0.150   0.101

mulliken: Qtot =       32.000

* Maximum dynamic memory allocated =    82 MB

siesta:                 ==============================
                            Begin CG move =      2
                        ==============================

outcoor: Atomic coordinates (Ang):                          
    0.05921413    0.05921405    0.05921411   1       1  Si
    1.37920243    1.37920240    1.37920226   1       2  Si
    2.74617490    2.74617485    0.02838286   1       3  Si
    4.05778439    4.05778439    1.37550157   1       4  Si
    2.74617483    0.02838339    2.74617471   1       5  Si
    4.05778459    1.37550199    4.05778473   1       6  Si
    0.02838358    2.74617494    2.74617478   1       7  Si
    1.37550194    4.05778467    4.05778487   1       8  Si
 Kpoints in:          108 . Kpoints trimmed:          108

siesta: k-grid: Number of k-points =   108
siesta: k-grid: Cutoff (effective) =    15.880 Ang
siesta: k-grid: Supercell and displacements
siesta: k-grid:    0   6   0      0.500
siesta: k-grid:    6   0   0      0.500
siesta: k-grid:    0   0   6      0.500
Naive supercell factors:     5    5    5

superc: Internal auxiliary supercell:     5 x     5 x     5  =     125
superc: Number of atoms, orbitals, and projectors:   1000  13000  16000

outcell: Unit cell vectors (Ang):
        5.293157   -0.025832   -0.025832
       -0.025832    5.293157   -0.025832
       -0.025832   -0.025832    5.293157

outcell: Cell vector modules (Ang)   :    5.293283    5.293283    5.293283
outcell: Cell angles (23,13,12) (deg):     90.5579     90.5579     90.5579
outcell: Cell volume (Ang**3)        :    148.2905
New_DM. Step:     3
Re-using DM from previous geometry...
Re-using DM without extrapolation (not allowed)
Density Matrix sparsity pattern changed.

siesta: E_KS(eV) =             -860.5923

siesta: Atomic forces (eV/Ang):
----------------------------------------
   Tot    0.000854    0.000857    0.000828
----------------------------------------
   Max    1.619808
   Res    1.149615    sqrt( Sum f_i^2 / 3N )
----------------------------------------
   Max    1.619808    constrained

Stress-tensor-Voigt (kbar):     -145.35     -145.35     -145.35       27.39       27.39       27.39
(Free)E + p*V (eV/cell)     -847.5717
Target enthalpy (eV/cell)     -860.5931

siesta: Stress tensor (static) (eV/Ang**3):
        -0.090721    0.017093    0.017093
         0.017093   -0.090721    0.017093
         0.017093    0.017093   -0.090721

siesta: Pressure (static):        145.35220052  kBar

siesta: Stress tensor (total) (eV/Ang**3):
        -0.090721    0.017093    0.017093
         0.017093   -0.090721    0.017093
         0.017093    0.017093   -0.090721

siesta: Pressure (total):        145.35220052  kBar

mulliken: Mulliken Atomic and Orbital Populations:

Species: Si                  
Atom  Qatom  Qorb
               3s      3s      3py     3pz     3px     3py     3pz     3px     
               3Pdxy   3Pdyz   3Pdz2   3Pdxz   3Pdx2-y2
   1  4.068   0.443   0.678   0.098   0.098   0.098   0.656   0.656   0.656
              0.157   0.157   0.107   0.157   0.107
   2  3.956   0.648   0.571   0.152   0.152   0.152   0.577   0.577   0.577
              0.131   0.131   0.079   0.131   0.079
   3  3.977   0.574   0.606   0.108   0.170   0.108   0.619   0.580   0.619
              0.144   0.137   0.082   0.137   0.093
   4  4.015   0.506   0.641   0.136   0.056   0.136   0.617   0.666   0.617
              0.144   0.150   0.105   0.150   0.090
   5  3.977   0.574   0.606   0.170   0.108   0.108   0.580   0.619   0.619
              0.137   0.137   0.091   0.144   0.085
   6  4.015   0.506   0.641   0.056   0.136   0.136   0.666   0.617   0.617
              0.150   0.150   0.094   0.144   0.101
   7  3.977   0.574   0.606   0.108   0.108   0.170   0.619   0.619   0.580
              0.137   0.144   0.091   0.137   0.085
   8  4.015   0.506   0.641   0.136   0.136   0.056   0.617   0.617   0.666
              0.150   0.144   0.094   0.150   0.101

mulliken: Qtot =       32.000

* Maximum dynamic memory allocated =    82 MB

siesta:                 ==============================
                            Begin CG move =      2
                        ==============================

outcoor: Atomic coordinates (Ang):                          
    0.05921413    0.05921405    0.05921411   1       1  Si
    1.37920243    1.37920240    1.37920226   1       2  Si
    2.74617490    2.74617485    0.02838286   1       3  Si
    4.05778439    4.05778439    1.37550157   1       4  Si
    2.74617483    0.02838339    2.74617471   1       5  Si
    4.05778459    1.37550199    4.05778473   1       6  Si
    0.02838358    2.74617494    2.74617478   1       7  Si
    1.37550194    4.05778467    4.05778487   1       8  Si
 Kpoints in:          108 . Kpoints trimmed:          108

siesta: k-grid: Number of k-points =   108
siesta: k-grid: Cutoff (effective) =    15.880 Ang
siesta: k-grid: Supercell and displacements
siesta: k-grid:    0   6   0      0.500
siesta: k-grid:    6   0   0      0.500
siesta: k-grid:    0   0   6      0.500
Naive supercell factors:     5    5    5

superc: Internal auxiliary supercell:     5 x     5 x     5  =     125
superc: Number of atoms, orbitals, and projectors:   1000  13000  16000

outcell: Unit cell vectors (Ang):
        5.293157   -0.025832   -0.025832
       -0.025832    5.293157   -0.025832
       -0.025832   -0.025832    5.293157

outcell: Cell vector modules (Ang)   :    5.293283    5.293283    5.293283
outcell: Cell angles (23,13,12) (deg):     90.5579     90.5579     90.5579
outcell: Cell volume (Ang**3)        :    148.2905
New_DM. Step:     3
Re-using DM from previous geometry...
Re-using DM without extrapolation (not allowed)
Density Matrix sparsity pattern changed.

InitMesh: MESH =    32 x    32 x    32 =       32768
InitMesh: Mesh cutoff (required, used) =   100.000   101.026 Ry

InitMesh: MESH =    32 x    32 x    32 =       32768
InitMesh: Mesh cutoff (required, used) =   100.000   101.026 Ry

siesta: iscf   Eharris(eV)      E_KS(eV)   FreeEng(eV)   dDmax  Ef(eV)
siesta:    1     -861.5367     -860.0569     -860.0577  0.0479 -5.5687

siesta: iscf   Eharris(eV)      E_KS(eV)   FreeEng(eV)   dDmax  Ef(eV)
siesta:    1     -861.5367     -860.0569     -860.0577  0.0479 -5.5687
siesta:    2     -861.6977     -861.3733     -861.3733  0.0601 -5.5349
siesta:    2     -861.6977     -861.3733     -861.3733  0.0601 -5.5349
siesta:    3     -861.4827     -861.1818     -861.1818  0.0164 -5.5533
siesta:    3     -861.4827     -861.1818     -861.1818  0.0164 -5.5533
siesta:    4     -861.4818     -861.4451     -861.4451  0.0013 -5.5562
siesta:    4     -861.4818     -861.4451     -861.4451  0.0013 -5.5562
siesta:    5     -861.4818     -861.4559     -861.4559  0.0008 -5.5557
siesta:    5     -861.4818     -861.4559     -861.4559  0.0008 -5.5557

siesta: E_KS(eV) =             -861.4744

siesta: Atomic forces (eV/Ang):
----------------------------------------
   Tot    0.000767    0.000777    0.000791
----------------------------------------
   Max    0.756314
   Res    0.462556    sqrt( Sum f_i^2 / 3N )
----------------------------------------
   Max    0.756314    constrained

Stress-tensor-Voigt (kbar):      -94.02      -94.02      -94.02       -4.06       -4.06       -4.06
(Free)E + p*V (eV/cell)     -852.7728
Target enthalpy (eV/cell)     -861.4744

siesta: Stress tensor (static) (eV/Ang**3):
        -0.058679   -0.002536   -0.002536
        -0.002536   -0.058679   -0.002536
        -0.002536   -0.002536   -0.058679

siesta: Pressure (static):         94.01567810  kBar

siesta: Stress tensor (total) (eV/Ang**3):
        -0.058679   -0.002536   -0.002536
        -0.002536   -0.058679   -0.002536
        -0.002536   -0.002536   -0.058679

siesta: Pressure (total):         94.01567810  kBar

mulliken: Mulliken Atomic and Orbital Populations:

Species: Si                  
Atom  Qatom  Qorb
               3s      3s      3py     3pz     3px     3py     3pz     3px     
               3Pdxy   3Pdyz   3Pdz2   3Pdxz   3Pdx2-y2
   1  4.012   0.536   0.624   0.133   0.133   0.133   0.614   0.614   0.614
              0.143   0.143   0.092   0.143   0.092
   2  3.981   0.637   0.572   0.170   0.170   0.170   0.571   0.571   0.571
              0.130   0.130   0.079   0.130   0.079
   3  3.996   0.585   0.599   0.145   0.172   0.145   0.596   0.579   0.596
              0.138   0.136   0.083   0.136   0.087
   4  4.006   0.551   0.616   0.155   0.111   0.155   0.596   0.624   0.596
              0.139   0.142   0.093   0.142   0.086
   5  3.996   0.585   0.599   0.172   0.145   0.145   0.579   0.596   0.596
              0.136   0.136   0.086   0.138   0.084
   6  4.006   0.551   0.616   0.111   0.155   0.155   0.624   0.596   0.596
              0.142   0.142   0.087   0.139   0.091
   7  3.996   0.585   0.599   0.145   0.145   0.172   0.596   0.596   0.579
              0.136   0.138   0.086   0.136   0.084
   8  4.006   0.551   0.616   0.155   0.155   0.111   0.596   0.596   0.624
              0.142   0.139   0.087   0.142   0.091

mulliken: Qtot =       32.000

* Maximum dynamic memory allocated =    94 MB

siesta:                 ==============================
                            Begin CG move =      3
                        ==============================

outcoor: Atomic coordinates (Ang):                          
    0.11843325    0.11843309    0.11843321   1       1  Si
    1.39823862    1.39823856    1.39823827   1       2  Si
    2.77120046    2.77120035    0.05839974   1       3  Si
    4.03391317    4.03391316    1.39313685   1       4  Si
    2.77120031    0.05840080    2.77120006   1       5  Si
    4.03391356    1.39313769    4.03391385   1       6  Si
    0.05840118    2.77120054    2.77120021   1       7  Si
    1.39313759    4.03391372    4.03391412   1       8  Si
 Kpoints in:          108 . Kpoints trimmed:          108

siesta: k-grid: Number of k-points =   108
siesta: k-grid: Cutoff (effective) =    16.156 Ang
siesta: k-grid: Supercell and displacements
siesta: k-grid:    0   6   0      0.500
siesta: k-grid:    6   0   0      0.500
siesta: k-grid:    0   0   6      0.500
Naive supercell factors:     5    5    5

superc: Internal auxiliary supercell:     5 x     5 x     5  =     125
superc: Number of atoms, orbitals, and projectors:   1000  13000  16000

outcell: Unit cell vectors (Ang):
        5.384881   -0.051267   -0.051267
       -0.051267    5.384881   -0.051267
       -0.051267   -0.051267    5.384882

outcell: Cell vector modules (Ang)   :    5.385370    5.385369    5.385370
outcell: Cell angles (23,13,12) (deg):     91.0857     91.0856     91.0856
outcell: Cell volume (Ang**3)        :    156.1024
New_DM. Step:     4
Re-using DM from previous geometry...
Re-using DM without extrapolation (not allowed)
Density Matrix sparsity pattern changed.

siesta: E_KS(eV) =             -861.4744

siesta: Atomic forces (eV/Ang):
----------------------------------------
   Tot    0.000767    0.000777    0.000791
----------------------------------------
   Max    0.756314
   Res    0.462556    sqrt( Sum f_i^2 / 3N )
----------------------------------------
   Max    0.756314    constrained

Stress-tensor-Voigt (kbar):      -94.02      -94.02      -94.02       -4.06       -4.06       -4.06
(Free)E + p*V (eV/cell)     -852.7728
Target enthalpy (eV/cell)     -861.4744

siesta: Stress tensor (static) (eV/Ang**3):
        -0.058679   -0.002536   -0.002536
        -0.002536   -0.058679   -0.002536
        -0.002536   -0.002536   -0.058679

siesta: Pressure (static):         94.01567810  kBar

siesta: Stress tensor (total) (eV/Ang**3):
        -0.058679   -0.002536   -0.002536
        -0.002536   -0.058679   -0.002536
        -0.002536   -0.002536   -0.058679

siesta: Pressure (total):         94.01567810  kBar

mulliken: Mulliken Atomic and Orbital Populations:

Species: Si                  
Atom  Qatom  Qorb
               3s      3s      3py     3pz     3px     3py     3pz     3px     
               3Pdxy   3Pdyz   3Pdz2   3Pdxz   3Pdx2-y2
   1  4.012   0.536   0.624   0.133   0.133   0.133   0.614   0.614   0.614
              0.143   0.143   0.092   0.143   0.092
   2  3.981   0.637   0.572   0.170   0.170   0.170   0.571   0.571   0.571
              0.130   0.130   0.079   0.130   0.079
   3  3.996   0.585   0.599   0.145   0.172   0.145   0.596   0.579   0.596
              0.138   0.136   0.083   0.136   0.087
   4  4.006   0.551   0.616   0.155   0.111   0.155   0.596   0.624   0.596
              0.139   0.142   0.093   0.142   0.086
   5  3.996   0.585   0.599   0.172   0.145   0.145   0.579   0.596   0.596
              0.136   0.136   0.086   0.138   0.084
   6  4.006   0.551   0.616   0.111   0.155   0.155   0.624   0.596   0.596
              0.142   0.142   0.087   0.139   0.091
   7  3.996   0.585   0.599   0.145   0.145   0.172   0.596   0.596   0.579
              0.136   0.138   0.086   0.136   0.084
   8  4.006   0.551   0.616   0.155   0.155   0.111   0.596   0.596   0.624
              0.142   0.139   0.087   0.142   0.091

mulliken: Qtot =       32.000

* Maximum dynamic memory allocated =    94 MB

siesta:                 ==============================
                            Begin CG move =      3
                        ==============================

outcoor: Atomic coordinates (Ang):                          
    0.11843325    0.11843309    0.11843321   1       1  Si
    1.39823862    1.39823856    1.39823827   1       2  Si
    2.77120046    2.77120035    0.05839974   1       3  Si
    4.03391317    4.03391316    1.39313685   1       4  Si
    2.77120031    0.05840080    2.77120006   1       5  Si
    4.03391356    1.39313769    4.03391385   1       6  Si
    0.05840118    2.77120054    2.77120021   1       7  Si
    1.39313759    4.03391372    4.03391412   1       8  Si
 Kpoints in:          108 . Kpoints trimmed:          108

siesta: k-grid: Number of k-points =   108
siesta: k-grid: Cutoff (effective) =    16.156 Ang
siesta: k-grid: Supercell and displacements
siesta: k-grid:    0   6   0      0.500
siesta: k-grid:    6   0   0      0.500
siesta: k-grid:    0   0   6      0.500
Naive supercell factors:     5    5    5

superc: Internal auxiliary supercell:     5 x     5 x     5  =     125
superc: Number of atoms, orbitals, and projectors:   1000  13000  16000

outcell: Unit cell vectors (Ang):
        5.384881   -0.051267   -0.051267
       -0.051267    5.384881   -0.051267
       -0.051267   -0.051267    5.384882

outcell: Cell vector modules (Ang)   :    5.385370    5.385369    5.385370
outcell: Cell angles (23,13,12) (deg):     91.0857     91.0856     91.0856
outcell: Cell volume (Ang**3)        :    156.1024
New_DM. Step:     4
Re-using DM from previous geometry...
Re-using DM without extrapolation (not allowed)
Density Matrix sparsity pattern changed.

InitMesh: MESH =    36 x    36 x    36 =       46656
InitMesh: Mesh cutoff (required, used) =   100.000   123.593 Ry

InitMesh: MESH =    36 x    36 x    36 =       46656
InitMesh: Mesh cutoff (required, used) =   100.000   123.593 Ry

siesta: iscf   Eharris(eV)      E_KS(eV)   FreeEng(eV)   dDmax  Ef(eV)
siesta:    1     -861.7466     -859.8719     -859.8719  0.0568 -5.3725

siesta: iscf   Eharris(eV)      E_KS(eV)   FreeEng(eV)   dDmax  Ef(eV)
siesta:    1     -861.7466     -859.8719     -859.8719  0.0568 -5.3725
siesta:    2     -862.3893     -861.0943     -861.0943  0.1041 -5.4591
siesta:    2     -862.3893     -861.0943     -861.0943  0.1041 -5.4591
siesta:    3     -861.5281     -860.9058     -860.9060  0.0282 -5.4021
siesta:    3     -861.5281     -860.9058     -860.9060  0.0282 -5.4021
siesta:    4     -861.5269     -861.4003     -861.4003  0.0034 -5.4023
siesta:    4     -861.5269     -861.4003     -861.4003  0.0034 -5.4023
siesta:    5     -861.5268     -861.4453     -861.4453  0.0022 -5.4020
siesta:    5     -861.5268     -861.4453     -861.4453  0.0022 -5.4020
siesta:    6     -861.5267     -861.5003     -861.5003  0.0004 -5.4013
siesta:    6     -861.5267     -861.5003     -861.5003  0.0004 -5.4013

siesta: E_KS(eV) =             -861.5093

siesta: Atomic forces (eV/Ang):
----------------------------------------
   Tot   -0.001478   -0.001484   -0.001519
----------------------------------------
   Max    1.271349
   Res    0.938933    sqrt( Sum f_i^2 / 3N )
----------------------------------------
   Max    1.271349    constrained

Stress-tensor-Voigt (kbar):      -39.74      -39.74      -39.74      -43.65      -43.65      -43.65
(Free)E + p*V (eV/cell)     -857.6370
Target enthalpy (eV/cell)     -861.5093

siesta: Stress tensor (static) (eV/Ang**3):
        -0.024806   -0.027244   -0.027244
        -0.027244   -0.024806   -0.027244
        -0.027244   -0.027244   -0.024806

siesta: Pressure (static):         39.74396648  kBar

siesta: Stress tensor (total) (eV/Ang**3):
        -0.024806   -0.027244   -0.027244
        -0.027244   -0.024806   -0.027244
        -0.027244   -0.027244   -0.024806

siesta: Pressure (total):         39.74396648  kBar

mulliken: Mulliken Atomic and Orbital Populations:

Species: Si                  
Atom  Qatom  Qorb
               3s      3s      3py     3pz     3px     3py     3pz     3px     
               3Pdxy   3Pdyz   3Pdz2   3Pdxz   3Pdx2-y2
   1  4.000   0.664   0.559   0.221   0.221   0.221   0.533   0.533   0.533
              0.123   0.123   0.074   0.123   0.074
   2  4.002   0.596   0.594   0.184   0.184   0.184   0.567   0.567   0.567
              0.132   0.132   0.082   0.132   0.082
   3  4.000   0.588   0.596   0.193   0.152   0.193   0.562   0.589   0.562
              0.130   0.134   0.086   0.134   0.079
   4  3.999   0.612   0.584   0.190   0.198   0.190   0.561   0.555   0.561
              0.130   0.129   0.080   0.129   0.080
   5  4.000   0.588   0.596   0.152   0.193   0.193   0.589   0.562   0.562
              0.134   0.134   0.081   0.130   0.085
   6  3.999   0.612   0.584   0.198   0.190   0.190   0.555   0.561   0.561
              0.129   0.129   0.080   0.130   0.080
   7  4.000   0.588   0.596   0.193   0.193   0.152   0.562   0.562   0.589
              0.134   0.130   0.081   0.134   0.085
   8  3.999   0.612   0.584   0.190   0.190   0.198   0.561   0.561   0.555
              0.129   0.130   0.080   0.129   0.080

mulliken: Qtot =       32.000

* Maximum dynamic memory allocated =    94 MB

siesta:                 ==============================
                            Begin CG move =      4
                        ==============================

outcoor: Atomic coordinates (Ang):                          
    0.09317454    0.09317442    0.09317451   1       1  Si
    1.39013916    1.39013911    1.39013888   1       2  Si
    2.76066374    2.76066366    0.04540194   1       3  Si
    4.04429231    4.04429231    1.38536040   1       4  Si
    2.76066363    0.04540277    2.76066343   1       5  Si
    4.04429261    1.38536106    4.04429284   1       6  Si
    0.04540307    2.76066381    2.76066355   1       7  Si
    1.38536098    4.04429274    4.04429306   1       8  Si
 Kpoints in:          108 . Kpoints trimmed:          108

siesta: k-grid: Number of k-points =   108
siesta: k-grid: Cutoff (effective) =    16.039 Ang
siesta: k-grid: Supercell and displacements
siesta: k-grid:    0   6   0      0.500
siesta: k-grid:    6   0   0      0.500
siesta: k-grid:    0   0   6      0.500
Naive supercell factors:     5    5    5

superc: Internal auxiliary supercell:     5 x     5 x     5  =     125
superc: Number of atoms, orbitals, and projectors:   1000  13000  16000

outcell: Unit cell vectors (Ang):
        5.345930   -0.040466   -0.040466
       -0.040466    5.345930   -0.040466
       -0.040466   -0.040466    5.345930

outcell: Cell vector modules (Ang)   :    5.346237    5.346237    5.346237
outcell: Cell angles (23,13,12) (deg):     90.8641     90.8641     90.8641
outcell: Cell volume (Ang**3)        :    152.7548
New_DM. Step:     5
Re-using DM from previous geometry...
Re-using DM without extrapolation (not allowed)
Density Matrix sparsity pattern changed.

siesta: E_KS(eV) =             -861.5093

siesta: Atomic forces (eV/Ang):
----------------------------------------
   Tot   -0.001478   -0.001484   -0.001519
----------------------------------------
   Max    1.271349
   Res    0.938933    sqrt( Sum f_i^2 / 3N )
----------------------------------------
   Max    1.271349    constrained

Stress-tensor-Voigt (kbar):      -39.74      -39.74      -39.74      -43.65      -43.65      -43.65
(Free)E + p*V (eV/cell)     -857.6370
Target enthalpy (eV/cell)     -861.5093

siesta: Stress tensor (static) (eV/Ang**3):
        -0.024806   -0.027244   -0.027244
        -0.027244   -0.024806   -0.027244
        -0.027244   -0.027244   -0.024806

siesta: Pressure (static):         39.74396648  kBar

siesta: Stress tensor (total) (eV/Ang**3):
        -0.024806   -0.027244   -0.027244
        -0.027244   -0.024806   -0.027244
        -0.027244   -0.027244   -0.024806

siesta: Pressure (total):         39.74396648  kBar

mulliken: Mulliken Atomic and Orbital Populations:

Species: Si                  
Atom  Qatom  Qorb
               3s      3s      3py     3pz     3px     3py     3pz     3px     
               3Pdxy   3Pdyz   3Pdz2   3Pdxz   3Pdx2-y2
   1  4.000   0.664   0.559   0.221   0.221   0.221   0.533   0.533   0.533
              0.123   0.123   0.074   0.123   0.074
   2  4.002   0.596   0.594   0.184   0.184   0.184   0.567   0.567   0.567
              0.132   0.132   0.082   0.132   0.082
   3  4.000   0.588   0.596   0.193   0.152   0.193   0.562   0.589   0.562
              0.130   0.134   0.086   0.134   0.079
   4  3.999   0.612   0.584   0.190   0.198   0.190   0.561   0.555   0.561
              0.130   0.129   0.080   0.129   0.080
   5  4.000   0.588   0.596   0.152   0.193   0.193   0.589   0.562   0.562
              0.134   0.134   0.081   0.130   0.085
   6  3.999   0.612   0.584   0.198   0.190   0.190   0.555   0.561   0.561
              0.129   0.129   0.080   0.130   0.080
   7  4.000   0.588   0.596   0.193   0.193   0.152   0.562   0.562   0.589
              0.134   0.130   0.081   0.134   0.085
   8  3.999   0.612   0.584   0.190   0.190   0.198   0.561   0.561   0.555
              0.129   0.130   0.080   0.129   0.080

mulliken: Qtot =       32.000

* Maximum dynamic memory allocated =    94 MB

siesta:                 ==============================
                            Begin CG move =      4
                        ==============================

outcoor: Atomic coordinates (Ang):                          
    0.09317454    0.09317442    0.09317451   1       1  Si
    1.39013916    1.39013911    1.39013888   1       2  Si
    2.76066374    2.76066366    0.04540194   1       3  Si
    4.04429231    4.04429231    1.38536040   1       4  Si
    2.76066363    0.04540277    2.76066343   1       5  Si
    4.04429261    1.38536106    4.04429284   1       6  Si
    0.04540307    2.76066381    2.76066355   1       7  Si
    1.38536098    4.04429274    4.04429306   1       8  Si
 Kpoints in:          108 . Kpoints trimmed:          108

siesta: k-grid: Number of k-points =   108
siesta: k-grid: Cutoff (effective) =    16.039 Ang
siesta: k-grid: Supercell and displacements
siesta: k-grid:    0   6   0      0.500
siesta: k-grid:    6   0   0      0.500
siesta: k-grid:    0   0   6      0.500
Naive supercell factors:     5    5    5

superc: Internal auxiliary supercell:     5 x     5 x     5  =     125
superc: Number of atoms, orbitals, and projectors:   1000  13000  16000

outcell: Unit cell vectors (Ang):
        5.345930   -0.040466   -0.040466
       -0.040466    5.345930   -0.040466
       -0.040466   -0.040466    5.345930

outcell: Cell vector modules (Ang)   :    5.346237    5.346237    5.346237
outcell: Cell angles (23,13,12) (deg):     90.8641     90.8641     90.8641
outcell: Cell volume (Ang**3)        :    152.7548
New_DM. Step:     5
Re-using DM from previous geometry...
Re-using DM without extrapolation (not allowed)
Density Matrix sparsity pattern changed.

InitMesh: MESH =    36 x    36 x    36 =       46656
InitMesh: Mesh cutoff (required, used) =   100.000   125.375 Ry

InitMesh: MESH =    36 x    36 x    36 =       46656
InitMesh: Mesh cutoff (required, used) =   100.000   125.375 Ry

siesta: iscf   Eharris(eV)      E_KS(eV)   FreeEng(eV)   dDmax  Ef(eV)
siesta:    1     -861.7329     -862.2168     -862.2168  0.0218 -5.4738

siesta: iscf   Eharris(eV)      E_KS(eV)   FreeEng(eV)   dDmax  Ef(eV)
siesta:    1     -861.7329     -862.2168     -862.2168  0.0218 -5.4738
siesta:    2     -861.8402     -861.6218     -861.6218  0.0464 -5.4777
siesta:    2     -861.8402     -861.6218     -861.6218  0.0464 -5.4777
siesta:    3     -861.6954     -861.7937     -861.7937  0.0098 -5.4715
siesta:    3     -861.6954     -861.7937     -861.7937  0.0098 -5.4715
siesta:    4     -861.6950     -861.6730     -861.6730  0.0016 -5.4707
siesta:    4     -861.6950     -861.6730     -861.6730  0.0016 -5.4707
siesta:    5     -861.6950     -861.6787     -861.6787  0.0011 -5.4705
siesta:    5     -861.6950     -861.6787     -861.6787  0.0011 -5.4705
siesta:    6     -861.6950     -861.6911     -861.6911  0.0001 -5.4702
siesta:    6     -861.6950     -861.6911     -861.6911  0.0001 -5.4702

siesta: E_KS(eV) =             -861.6928

siesta: Atomic forces (eV/Ang):
----------------------------------------
   Tot   -0.001000   -0.000998   -0.000989
----------------------------------------
   Max    0.623758
   Res    0.522460    sqrt( Sum f_i^2 / 3N )
----------------------------------------
   Max    0.623758    constrained

Stress-tensor-Voigt (kbar):      -58.88      -58.88      -58.88      -28.03      -28.03      -28.03
(Free)E + p*V (eV/cell)     -856.0793
Target enthalpy (eV/cell)     -861.6928

siesta: Stress tensor (static) (eV/Ang**3):
        -0.036749   -0.017494   -0.017494
        -0.017494   -0.036749   -0.017494
        -0.017494   -0.017494   -0.036749

siesta: Pressure (static):         58.87831530  kBar

siesta: Stress tensor (total) (eV/Ang**3):
        -0.036749   -0.017494   -0.017494
        -0.017494   -0.036749   -0.017494
        -0.017494   -0.017494   -0.036749

siesta: Pressure (total):         58.87831530  kBar

mulliken: Mulliken Atomic and Orbital Populations:

Species: Si                  
Atom  Qatom  Qorb
               3s      3s      3py     3pz     3px     3py     3pz     3px     
               3Pdxy   3Pdyz   3Pdz2   3Pdxz   3Pdx2-y2
   1  3.997   0.613   0.584   0.179   0.179   0.179   0.569   0.569   0.569
              0.131   0.131   0.081   0.131   0.081
   2  3.997   0.615   0.583   0.181   0.181   0.181   0.567   0.567   0.567
              0.131   0.131   0.080   0.131   0.080
   3  4.001   0.589   0.596   0.174   0.161   0.174   0.577   0.585   0.577
              0.133   0.134   0.085   0.134   0.082
   4  4.001   0.588   0.596   0.175   0.161   0.175   0.576   0.585   0.576
              0.133   0.134   0.085   0.134   0.082
   5  4.001   0.589   0.596   0.161   0.174   0.174   0.585   0.577   0.577
              0.134   0.134   0.083   0.133   0.084
   6  4.001   0.588   0.596   0.161   0.175   0.175   0.585   0.576   0.576
              0.134   0.134   0.083   0.133   0.084
   7  4.001   0.589   0.596   0.174   0.174   0.161   0.577   0.577   0.585
              0.134   0.133   0.083   0.134   0.084
   8  4.001   0.588   0.596   0.175   0.175   0.161   0.576   0.576   0.585
              0.134   0.133   0.083   0.134   0.084

mulliken: Qtot =       32.000

cgvc: Finished line minimization    1.  Mean atomic displacement =    0.1634

* Maximum dynamic memory allocated =    95 MB

siesta:                 ==============================
                            Begin CG move =      5
                        ==============================

outcoor: Atomic coordinates (Ang):                          
    0.07545947    0.07545973    0.07546004   1       1  Si
    1.48175984    1.48175983    1.48175920   1       2  Si
    2.78532181    2.78532187    0.09352278   1       3  Si
    4.18073595    4.18073601    1.47387876   1       4  Si
    2.78532242    0.09352376    2.78532242   1       5  Si
    4.18073613    1.47387823    4.18073616   1       6  Si
    0.09352369    2.78532241    2.78532263   1       7  Si
    1.47387844    4.18073602    4.18073649   1       8  Si
 Kpoints in:          108 . Kpoints trimmed:          108

siesta: k-grid: Number of k-points =   108
siesta: k-grid: Cutoff (effective) =    16.368 Ang
siesta: k-grid: Supercell and displacements
siesta: k-grid:    0   6   0      0.500
siesta: k-grid:    6   0   0      0.500
siesta: k-grid:    0   0   6      0.500
Naive supercell factors:     5    5    5

superc: Internal auxiliary supercell:     5 x     5 x     5  =     125
superc: Number of atoms, orbitals, and projectors:   1000  13000  16000

outcell: Unit cell vectors (Ang):
        5.455999   -0.010614   -0.010614
       -0.010614    5.455999   -0.010614
       -0.010614   -0.010614    5.455999

outcell: Cell vector modules (Ang)   :    5.456019    5.456019    5.456020
outcell: Cell angles (23,13,12) (deg):     90.2227     90.2227     90.2227
outcell: Cell volume (Ang**3)        :    162.4119
New_DM. Step:     6
Re-using DM from previous geometry...
Re-using DM without extrapolation (not allowed)
Density Matrix sparsity pattern changed.

siesta: E_KS(eV) =             -861.6928

siesta: Atomic forces (eV/Ang):
----------------------------------------
   Tot   -0.001000   -0.000998   -0.000989
----------------------------------------
   Max    0.623758
   Res    0.522460    sqrt( Sum f_i^2 / 3N )
----------------------------------------
   Max    0.623758    constrained

Stress-tensor-Voigt (kbar):      -58.88      -58.88      -58.88      -28.03      -28.03      -28.03
(Free)E + p*V (eV/cell)     -856.0793
Target enthalpy (eV/cell)     -861.6928

siesta: Stress tensor (static) (eV/Ang**3):
        -0.036749   -0.017494   -0.017494
        -0.017494   -0.036749   -0.017494
        -0.017494   -0.017494   -0.036749

siesta: Pressure (static):         58.87831530  kBar

siesta: Stress tensor (total) (eV/Ang**3):
        -0.036749   -0.017494   -0.017494
        -0.017494   -0.036749   -0.017494
        -0.017494   -0.017494   -0.036749

siesta: Pressure (total):         58.87831530  kBar

mulliken: Mulliken Atomic and Orbital Populations:

Species: Si                  
Atom  Qatom  Qorb
               3s      3s      3py     3pz     3px     3py     3pz     3px     
               3Pdxy   3Pdyz   3Pdz2   3Pdxz   3Pdx2-y2
   1  3.997   0.613   0.584   0.179   0.179   0.179   0.569   0.569   0.569
              0.131   0.131   0.081   0.131   0.081
   2  3.997   0.615   0.583   0.181   0.181   0.181   0.567   0.567   0.567
              0.131   0.131   0.080   0.131   0.080
   3  4.001   0.589   0.596   0.174   0.161   0.174   0.577   0.585   0.577
              0.133   0.134   0.085   0.134   0.082
   4  4.001   0.588   0.596   0.175   0.161   0.175   0.576   0.585   0.576
              0.133   0.134   0.085   0.134   0.082
   5  4.001   0.589   0.596   0.161   0.174   0.174   0.585   0.577   0.577
              0.134   0.134   0.083   0.133   0.084
   6  4.001   0.588   0.596   0.161   0.175   0.175   0.585   0.576   0.576
              0.134   0.134   0.083   0.133   0.084
   7  4.001   0.589   0.596   0.174   0.174   0.161   0.577   0.577   0.585
              0.134   0.133   0.083   0.134   0.084
   8  4.001   0.588   0.596   0.175   0.175   0.161   0.576   0.576   0.585
              0.134   0.133   0.083   0.134   0.084

mulliken: Qtot =       32.000

cgvc: Finished line minimization    1.  Mean atomic displacement =    0.1634

* Maximum dynamic memory allocated =    95 MB

siesta:                 ==============================
                            Begin CG move =      5
                        ==============================

outcoor: Atomic coordinates (Ang):                          
    0.07545947    0.07545973    0.07546004   1       1  Si
    1.48175984    1.48175983    1.48175920   1       2  Si
    2.78532181    2.78532187    0.09352278   1       3  Si
    4.18073595    4.18073601    1.47387876   1       4  Si
    2.78532242    0.09352376    2.78532242   1       5  Si
    4.18073613    1.47387823    4.18073616   1       6  Si
    0.09352369    2.78532241    2.78532263   1       7  Si
    1.47387844    4.18073602    4.18073649   1       8  Si
 Kpoints in:          108 . Kpoints trimmed:          108

siesta: k-grid: Number of k-points =   108
siesta: k-grid: Cutoff (effective) =    16.368 Ang
siesta: k-grid: Supercell and displacements
siesta: k-grid:    0   6   0      0.500
siesta: k-grid:    6   0   0      0.500
siesta: k-grid:    0   0   6      0.500
Naive supercell factors:     5    5    5

superc: Internal auxiliary supercell:     5 x     5 x     5  =     125
superc: Number of atoms, orbitals, and projectors:   1000  13000  16000

outcell: Unit cell vectors (Ang):
        5.455999   -0.010614   -0.010614
       -0.010614    5.455999   -0.010614
       -0.010614   -0.010614    5.455999

outcell: Cell vector modules (Ang)   :    5.456019    5.456019    5.456020
outcell: Cell angles (23,13,12) (deg):     90.2227     90.2227     90.2227
outcell: Cell volume (Ang**3)        :    162.4119

InitMesh: MESH =    36 x    36 x    36 =       46656
InitMesh: Mesh cutoff (required, used) =   100.000   120.328 Ry
New_DM. Step:     6
Re-using DM from previous geometry...
Re-using DM without extrapolation (not allowed)
Density Matrix sparsity pattern changed.

InitMesh: MESH =    36 x    36 x    36 =       46656
InitMesh: Mesh cutoff (required, used) =   100.000   120.328 Ry

siesta: iscf   Eharris(eV)      E_KS(eV)   FreeEng(eV)   dDmax  Ef(eV)
siesta:    1     -861.8851     -860.0019     -860.0019  0.0600 -5.2217

siesta: iscf   Eharris(eV)      E_KS(eV)   FreeEng(eV)   dDmax  Ef(eV)
siesta:    1     -861.8851     -860.0019     -860.0019  0.0600 -5.2217
siesta:    2     -861.9923     -861.7650     -861.7650  0.0701 -5.2563
siesta:    2     -861.9923     -861.7650     -861.7650  0.0701 -5.2563
siesta:    3     -861.8415     -861.6393     -861.6393  0.0091 -5.2383
siesta:    3     -861.8415     -861.6393     -861.6393  0.0091 -5.2383
siesta:    4     -861.8410     -861.8099     -861.8099  0.0029 -5.2388
siesta:    4     -861.8410     -861.8099     -861.8099  0.0029 -5.2388
siesta:    5     -861.8409     -861.8281     -861.8281  0.0018 -5.2389
siesta:    5     -861.8409     -861.8281     -861.8281  0.0018 -5.2389
siesta:    6     -861.8408     -861.8337     -861.8337  0.0003 -5.2387
siesta:    6     -861.8408     -861.8337     -861.8337  0.0003 -5.2387

siesta: E_KS(eV) =             -861.8356

siesta: Atomic forces (eV/Ang):
----------------------------------------
   Tot   -0.000102   -0.000106   -0.000108
----------------------------------------
   Max    0.743409
   Res    0.488145    sqrt( Sum f_i^2 / 3N )
----------------------------------------
   Max    0.743409    constrained

Stress-tensor-Voigt (kbar):        5.67        5.67        5.67        9.51        9.51        9.51
(Free)E + p*V (eV/cell)     -862.4099
Target enthalpy (eV/cell)     -861.8356

siesta: Stress tensor (static) (eV/Ang**3):
         0.003536    0.005935    0.005936
         0.005935    0.003536    0.005936
         0.005936    0.005936    0.003536

siesta: Pressure (static):         -5.66505030  kBar

siesta: Stress tensor (total) (eV/Ang**3):
         0.003536    0.005935    0.005936
         0.005935    0.003536    0.005936
         0.005936    0.005936    0.003536

siesta: Pressure (total):         -5.66505030  kBar

mulliken: Mulliken Atomic and Orbital Populations:

Species: Si                  
Atom  Qatom  Qorb
               3s      3s      3py     3pz     3px     3py     3pz     3px     
               3Pdxy   3Pdyz   3Pdz2   3Pdxz   3Pdx2-y2
   1  3.997   0.669   0.555   0.240   0.240   0.240   0.516   0.516   0.516
              0.120   0.120   0.072   0.120   0.072
   2  4.008   0.609   0.585   0.215   0.215   0.215   0.544   0.544   0.544
              0.127   0.127   0.079   0.127   0.079
   3  4.001   0.631   0.574   0.228   0.211   0.228   0.530   0.541   0.530
              0.124   0.125   0.078   0.125   0.075
   4  3.997   0.653   0.563   0.225   0.241   0.225   0.529   0.518   0.529
              0.124   0.122   0.072   0.122   0.075
   5  4.001   0.631   0.574   0.211   0.228   0.228   0.541   0.530   0.530
              0.125   0.125   0.075   0.124   0.077
   6  3.997   0.653   0.563   0.241   0.225   0.225   0.518   0.529   0.529
              0.122   0.122   0.074   0.124   0.073
   7  4.001   0.631   0.574   0.228   0.228   0.211   0.530   0.530   0.541
              0.125   0.124   0.075   0.125   0.077
   8  3.997   0.653   0.563   0.225   0.225   0.241   0.529   0.529   0.518
              0.122   0.124   0.074   0.122   0.073

mulliken: Qtot =       32.000

* Maximum dynamic memory allocated =    95 MB

siesta:                 ==============================
                            Begin CG move =      6
                        ==============================

outcoor: Atomic coordinates (Ang):                          
    0.08186859    0.08186871    0.08186895   1       1  Si
    1.44904338    1.44904336    1.44904287   1       2  Si
    2.77687336    2.77687337    0.07656737   1       3  Si
    4.13236896    4.13236900    1.44247840   1       4  Si
    2.77687371    0.07656830    2.77687364   1       5  Si
    4.13236919    1.44247830    4.13236929   1       6  Si
    0.07656836    2.77687377    2.77687382   1       7  Si
    1.44247840    4.13236916    4.13236958   1       8  Si
 Kpoints in:          108 . Kpoints trimmed:          108

siesta: k-grid: Number of k-points =   108
siesta: k-grid: Cutoff (effective) =    16.252 Ang
siesta: k-grid: Supercell and displacements
siesta: k-grid:    0   6   0      0.500
siesta: k-grid:    6   0   0      0.500
siesta: k-grid:    0   0   6      0.500
Naive supercell factors:     5    5    5

superc: Internal auxiliary supercell:     5 x     5 x     5  =     125
superc: Number of atoms, orbitals, and projectors:   1000  13000  16000

outcell: Unit cell vectors (Ang):
        5.417096   -0.021165   -0.021165
       -0.021165    5.417096   -0.021165
       -0.021165   -0.021165    5.417097

outcell: Cell vector modules (Ang)   :    5.417179    5.417179    5.417179
outcell: Cell angles (23,13,12) (deg):     90.4468     90.4468     90.4468
outcell: Cell volume (Ang**3)        :    158.9570
New_DM. Step:     7
Re-using DM from previous geometry...
Re-using DM without extrapolation (not allowed)
Density Matrix sparsity pattern changed.

siesta: E_KS(eV) =             -861.8356

siesta: Atomic forces (eV/Ang):
----------------------------------------
   Tot   -0.000102   -0.000106   -0.000108
----------------------------------------
   Max    0.743409
   Res    0.488145    sqrt( Sum f_i^2 / 3N )
----------------------------------------
   Max    0.743409    constrained

[...]
         10.42  11.01  11.07  11.32  11.46  11.75  12.05  12.44  13.03  13.36
         14.11  14.33  14.55  14.65  14.70  15.71  16.20  16.44  16.48  17.19
         17.72  17.87  18.73  18.95  19.48  20.82  21.92  22.34  23.30  23.45
         23.87  24.05  24.83  25.21  26.49  26.62  33.02  37.88  39.14  41.34
         44.23  54.70  54.75  56.94  58.68  64.16  65.80  67.88  67.99  69.23
         73.47  86.56  89.30  90.65
  93  1 -16.59 -15.91 -14.73 -14.38 -12.52 -12.12 -10.68  -9.96  -9.69  -9.64
         -8.58  -8.34  -8.12  -7.87  -7.61  -6.66  -3.53  -3.51  -3.03  -2.40
         -2.16  -1.88  -1.87  -1.07  -1.04  -0.87  -0.65  -0.54   0.45   0.46
          1.13   1.90   1.92   1.96   2.55   3.47   3.93   3.97   4.59   5.57
          5.68   5.69   7.49   7.84   8.20   8.49   8.90   9.27   9.49  10.15
         10.42  11.00  11.07  11.32  11.46  11.76  12.05  12.43  13.02  13.34
         14.11  14.31  14.54  14.65  14.70  15.74  16.22  16.44  16.47  17.19
         17.72  17.87  18.74  18.96  19.49  20.83  21.92  22.32  23.31  23.45
         23.88  24.05  24.82  25.22  26.49  26.64  33.10  37.90  39.15  41.31
         44.34  54.58  54.70  56.85  58.68  64.20  65.81  67.91  68.05  69.25
         73.53  86.59  89.35  90.62
  94  1 -16.38 -15.73 -14.80 -14.80 -12.45 -12.45 -11.39 -10.59  -9.19  -9.19
         -8.15  -7.85  -7.84  -7.52  -7.00  -6.97  -3.64  -3.40  -3.27  -3.27
         -2.31  -1.69  -1.69  -1.50  -1.39  -0.68  -0.54   0.32   0.33   0.45
          0.69   0.69   2.75   2.75   3.23   3.24   4.78   4.92   5.06   5.34
          5.40   5.41   6.45   6.45   7.24   8.14   8.79   9.16   9.18   9.18
          9.32   9.33  11.10  11.43  11.43  11.79  13.10  13.33  13.52  13.52
         13.65  14.79  15.04  15.04  16.24  16.24  16.69  16.75  17.28  17.51
         17.52  17.92  17.92  19.29  19.30  19.32  20.92  22.29  22.44  23.99
         24.64  24.64  25.49  27.54  28.15  28.15  32.73  33.57  36.57  36.57
         41.89  49.39  56.33  56.34  57.33  62.28  64.40  68.96  68.98  70.31
         81.59  87.00  87.03  94.79
  95  1 -15.97 -15.41 -15.41 -15.04 -12.48 -12.08 -12.08 -11.44  -8.71  -8.28
         -8.28  -7.55  -7.29  -7.25  -7.25  -6.68  -3.51  -3.47  -3.09  -3.08
         -2.40  -2.40  -2.02  -1.99  -1.55  -1.18  -1.04  -1.04   1.21   1.21
          2.03   2.20   2.40   3.07   3.44   3.89   3.89   4.26   4.26   4.49
          5.13   6.95   6.95   7.15   7.15   7.67   8.00   8.63   8.83   8.83
          8.98   9.24   9.30  10.09  10.52  10.52  13.87  14.11  14.11  15.11
         15.11  15.16  15.61  15.86  15.91  16.00  16.62  16.63  17.79  18.43
         18.48  18.48  19.10  19.10  19.44  19.93  20.61  20.62  21.31  21.96
         27.07  27.30  27.30  29.05  29.16  32.62  32.63  34.73  40.05  41.86
         41.86  48.15  55.84  55.87  58.82  59.72  64.97  76.51  76.52  80.87
         82.07  82.10  90.41  94.90
  96  1 -15.97 -15.41 -15.41 -15.04 -12.48 -12.08 -12.08 -11.43  -8.71  -8.28
         -8.27  -7.55  -7.29  -7.25  -7.25  -6.68  -3.52  -3.48  -3.09  -3.08
         -2.40  -2.39  -2.03  -1.99  -1.55  -1.18  -1.04  -1.03   1.22   1.23
          2.02   2.20   2.42   3.05   3.43   3.88   3.89   4.25   4.26   4.49
          5.15   6.94   6.94   7.13   7.14   7.66   8.01   8.62   8.82   8.83
          8.97   9.26   9.33  10.10  10.53  10.55  13.88  14.11  14.12  15.10
         15.11  15.17  15.62  15.88  15.92  16.00  16.60  16.60  17.78  18.43
         18.49  18.50  19.08  19.10  19.44  19.92  20.61  20.61  21.30  22.00
         27.04  27.28  27.31  29.04  29.16  32.61  32.62  34.72  40.03  41.84
         41.86  48.12  55.88  55.92  58.71  59.68  64.81  76.40  76.44  80.94
         82.07  82.12  90.44  94.47
  97  1 -15.97 -15.41 -15.41 -15.05 -12.49 -12.08 -12.08 -11.43  -8.70  -8.28
         -8.28  -7.56  -7.28  -7.26  -7.25  -6.68  -3.52  -3.47  -3.09  -3.09
         -2.40  -2.40  -2.03  -2.00  -1.54  -1.17  -1.04  -1.04   1.23   1.23
          2.04   2.21   2.41   3.05   3.43   3.88   3.88   4.25   4.25   4.48
          5.12   6.93   6.94   7.15   7.15   7.67   8.00   8.61   8.82   8.82
          8.97   9.27   9.32  10.11  10.55  10.55  13.89  14.12  14.12  15.11
         15.12  15.16  15.62  15.87  15.90  15.99  16.59  16.60  17.77  18.43
         18.48  18.48  19.10  19.10  19.44  19.92  20.60  20.60  21.30  21.98
         27.07  27.29  27.29  29.02  29.17  32.59  32.59  34.72  40.05  41.82
         41.84  48.19  55.71  55.74  58.80  59.72  64.87  76.40  76.42  80.84
         82.05  82.08  90.46  94.67
  98  1 -16.15 -15.52 -15.51 -14.98 -12.02 -11.38 -11.38 -10.58  -9.74  -9.23
         -9.23  -8.62  -7.41  -7.35  -7.35  -6.61  -3.63  -2.90  -2.68  -2.68
         -2.02  -2.02  -1.61  -1.43  -0.31  -0.31  -0.28  -0.12   0.23   0.23
          0.54   0.98   1.56   1.93   2.32   2.57   2.57   4.10   4.10   5.17
          5.76   7.71   7.71   7.98   8.55   8.56   9.40   9.57   9.79   9.90
          9.90  10.61  11.11  11.67  11.68  12.08  12.71  12.90  12.98  12.98
         13.57  13.77  13.78  14.51  15.03  15.27  15.27  15.50  17.61  18.45
         18.46  19.25  20.07  20.07  20.52  20.54  21.78  21.78  21.99  22.51
         25.48  26.09  26.24  26.24  28.01  36.12  36.12  41.33  44.88  44.89
         51.43  51.46  54.50  54.51  59.92  61.72  63.48  69.86  69.88  81.55
         81.57  82.48  85.13  88.11
  99  1 -16.15 -15.52 -15.51 -14.98 -12.02 -11.38 -11.38 -10.58  -9.74  -9.23
         -9.23  -8.61  -7.41  -7.35  -7.35  -6.61  -3.63  -2.90  -2.68  -2.68
         -2.01  -2.01  -1.61  -1.42  -0.33  -0.33  -0.28  -0.13   0.22   0.23
          0.53   0.98   1.57   1.93   2.32   2.58   2.59   4.10   4.10   5.17
          5.76   7.71   7.71   7.98   8.55   8.56   9.39   9.56   9.77   9.92
          9.92  10.61  11.13  11.66  11.67  12.06  12.71  12.89  12.95  12.95
         13.55  13.77  13.77  14.52  15.04  15.29  15.30  15.51  17.61  18.45
         18.46  19.26  20.07  20.07  20.53  20.54  21.79  21.79  21.99  22.50
         25.48  26.08  26.25  26.25  28.02  36.12  36.13  41.33  44.95  44.96
         51.45  51.50  54.49  54.50  59.96  61.63  63.53  70.00  70.05  81.57
         81.58  82.50  85.11  88.09
 100  1 -15.97 -15.41 -15.41 -15.04 -12.48 -12.08 -12.08 -11.44  -8.71  -8.28
         -8.28  -7.55  -7.29  -7.25  -7.25  -6.68  -3.51  -3.47  -3.09  -3.08
         -2.40  -2.40  -2.02  -1.99  -1.55  -1.18  -1.04  -1.04   1.21   1.21
          2.03   2.20   2.40   3.07   3.44   3.89   3.89   4.26   4.26   4.49
          5.13   6.95   6.95   7.15   7.15   7.67   8.00   8.63   8.83   8.83
          8.98   9.24   9.30  10.09  10.52  10.52  13.87  14.11  14.11  15.11
         15.11  15.16  15.61  15.86  15.91  16.00  16.62  16.63  17.79  18.43
         18.48  18.48  19.10  19.10  19.44  19.93  20.61  20.62  21.31  21.96
         27.07  27.30  27.30  29.05  29.16  32.62  32.63  34.73  40.05  41.86
         41.86  48.15  55.84  55.87  58.82  59.72  64.97  76.51  76.52  80.87
         82.07  82.10  90.41  94.90
 101  1 -15.65 -15.28 -15.28 -15.27 -12.59 -12.59 -12.59 -12.19  -7.49  -7.49
         -7.49  -7.07  -7.07  -7.07  -6.84  -6.84  -4.14  -3.68  -3.68  -3.67
         -2.31  -2.31  -2.31  -2.17  -2.17  -1.88  -1.87  -1.87   2.70   2.70
          2.70   3.12   4.00   4.00   4.04   4.05   4.05   5.03   5.34   5.34
          5.34   6.14   6.14   6.14   6.27   6.27   6.27   7.69   7.69   7.90
          7.90   7.91   8.71   8.72   8.72   8.78  16.01  16.01  16.01  16.06
         16.54  16.54  16.78  16.78  16.78  17.45  17.46  17.46  18.22  18.22
         18.23  19.05  19.06  19.06  19.48  19.50  19.50  20.12  20.12  21.99
         28.56  28.56  28.56  30.05  30.05  30.13  30.13  30.14  52.29  52.29
         52.30  56.67  62.00  62.00  62.04  71.75  71.75  71.75  74.64  74.64
         87.14  87.14  87.20 103.08
 102  1 -15.64 -15.28 -15.28 -15.27 -12.59 -12.59 -12.59 -12.18  -7.49  -7.49
         -7.48  -7.08  -7.07  -7.07  -6.85  -6.84  -4.15  -3.68  -3.68  -3.66
         -2.31  -2.30  -2.30  -2.17  -2.17  -1.88  -1.87  -1.87   2.71   2.72
          2.72   3.11   3.99   4.01   4.04   4.04   4.05   5.04   5.32   5.33
          5.33   6.13   6.13   6.13   6.25   6.26   6.26   7.69   7.70   7.91
          7.91   7.92   8.72   8.73   8.74   8.79  15.99  16.01  16.01  16.08
         16.54  16.56  16.78  16.79  16.80  17.43  17.44  17.44  18.19  18.22
         18.22  19.06  19.06  19.07  19.49  19.49  19.50  20.10  20.11  22.04
         28.53  28.53  28.56  30.01  30.05  30.14  30.14  30.15  52.27  52.27
         52.37  56.67  61.83  61.90  62.12  71.78  71.84  71.86  74.13  74.41
         87.06  87.09  87.10 102.94
 103  1 -15.97 -15.41 -15.41 -15.04 -12.48 -12.08 -12.08 -11.43  -8.71  -8.28
         -8.27  -7.55  -7.29  -7.25  -7.25  -6.68  -3.52  -3.48  -3.09  -3.08
         -2.40  -2.39  -2.03  -1.99  -1.55  -1.18  -1.04  -1.03   1.22   1.23
          2.02   2.20   2.42   3.05   3.43   3.88   3.89   4.25   4.26   4.49
          5.15   6.94   6.94   7.13   7.14   7.66   8.01   8.62   8.82   8.83
          8.97   9.26   9.33  10.10  10.53  10.55  13.88  14.11  14.12  15.10
         15.11  15.17  15.62  15.88  15.92  16.00  16.60  16.60  17.78  18.43
         18.49  18.50  19.08  19.10  19.44  19.92  20.61  20.61  21.30  22.00
         27.04  27.28  27.31  29.04  29.16  32.61  32.62  34.72  40.03  41.84
         41.86  48.12  55.88  55.92  58.71  59.68  64.81  76.40  76.44  80.94
         82.07  82.12  90.44  94.47
 104  1 -16.15 -15.52 -15.52 -14.98 -12.02 -11.39 -11.38 -10.58  -9.74  -9.24
         -9.23  -8.61  -7.42  -7.35  -7.35  -6.62  -3.64  -2.91  -2.68  -2.67
         -2.02  -2.01  -1.62  -1.43  -0.32  -0.31  -0.28  -0.13   0.23   0.24
          0.53   0.97   1.56   1.92   2.34   2.58   2.59   4.08   4.09   5.18
          5.78   7.68   7.69   7.98   8.55   8.56   9.41   9.57   9.79   9.90
          9.91  10.61  11.12  11.66  11.67  12.08  12.72  12.90  12.97  12.97
         13.56  13.76  13.77  14.54  15.03  15.27  15.28  15.52  17.63  18.45
         18.46  19.24  20.05  20.07  20.51  20.55  21.78  21.79  21.98  22.52
         25.46  26.08  26.25  26.26  28.01  36.12  36.13  41.31  44.93  44.95
         51.29  51.53  54.58  54.65  59.90  61.73  63.39  69.89  69.91  81.52
         81.55  82.55  85.14  88.14
 105  1 -16.15 -15.52 -15.52 -14.98 -12.02 -11.39 -11.38 -10.58  -9.74  -9.24
         -9.23  -8.61  -7.42  -7.35  -7.35  -6.62  -3.64  -2.91  -2.68  -2.67
         -2.02  -2.01  -1.62  -1.43  -0.32  -0.31  -0.28  -0.13   0.23   0.24
          0.53   0.97   1.56   1.92   2.34   2.58   2.59   4.08   4.09   5.18
          5.78   7.68   7.69   7.98   8.55   8.56   9.41   9.57   9.79   9.90
          9.91  10.61  11.12  11.66  11.67  12.08  12.72  12.90  12.97  12.97
         13.56  13.76  13.77  14.54  15.03  15.27  15.28  15.52  17.63  18.45
         18.46  19.24  20.05  20.07  20.51  20.55  21.78  21.79  21.98  22.52
         25.46  26.08  26.25  26.26  28.01  36.12  36.13  41.31  44.93  44.95
         51.29  51.53  54.58  54.65  59.90  61.73  63.39  69.89  69.91  81.52
         81.55  82.55  85.14  88.14
 106  1 -15.97 -15.41 -15.41 -15.04 -12.48 -12.08 -12.08 -11.43  -8.71  -8.28
         -8.27  -7.55  -7.29  -7.25  -7.25  -6.68  -3.52  -3.48  -3.09  -3.08
         -2.40  -2.39  -2.03  -1.99  -1.55  -1.18  -1.04  -1.03   1.22   1.23
          2.02   2.20   2.42   3.05   3.43   3.88   3.89   4.25   4.26   4.49
          5.15   6.94   6.94   7.13   7.14   7.66   8.01   8.62   8.82   8.83
          8.97   9.26   9.33  10.10  10.53  10.55  13.88  14.11  14.12  15.10
         15.11  15.17  15.62  15.88  15.92  16.00  16.60  16.60  17.78  18.43
         18.49  18.50  19.08  19.10  19.44  19.92  20.61  20.61  21.30  22.00
         27.04  27.28  27.31  29.04  29.16  32.61  32.62  34.72  40.03  41.84
         41.86  48.12  55.88  55.92  58.71  59.68  64.81  76.40  76.44  80.94
         82.07  82.12  90.44  94.47
 107  1 -15.64 -15.28 -15.28 -15.27 -12.59 -12.59 -12.59 -12.18  -7.49  -7.49
         -7.48  -7.08  -7.07  -7.07  -6.85  -6.84  -4.15  -3.68  -3.68  -3.66
         -2.31  -2.30  -2.30  -2.17  -2.17  -1.88  -1.87  -1.87   2.71   2.72
          2.72   3.11   3.99   4.01   4.04   4.04   4.05   5.04   5.32   5.33
          5.33   6.13   6.13   6.13   6.25   6.26   6.26   7.69   7.70   7.91
          7.91   7.92   8.72   8.73   8.74   8.79  15.99  16.01  16.01  16.08
         16.54  16.56  16.78  16.79  16.80  17.43  17.44  17.44  18.19  18.22
         18.22  19.06  19.06  19.07  19.49  19.49  19.50  20.10  20.11  22.04
         28.53  28.53  28.56  30.01  30.05  30.14  30.14  30.15  52.27  52.27
         52.37  56.67  61.83  61.90  62.12  71.78  71.84  71.86  74.13  74.41
         87.06  87.09  87.10 102.94
 108  1 -15.64 -15.28 -15.28 -15.27 -12.59 -12.59 -12.59 -12.18  -7.49  -7.49
         -7.48  -7.08  -7.07  -7.07  -6.85  -6.84  -4.15  -3.68  -3.68  -3.66
         -2.31  -2.30  -2.30  -2.17  -2.17  -1.88  -1.87  -1.87   2.71   2.72
          2.72   3.11   3.99   4.01   4.04   4.04   4.05   5.04   5.32   5.33
          5.33   6.13   6.13   6.13   6.25   6.26   6.26   7.69   7.70   7.91
          7.91   7.92   8.72   8.73   8.74   8.79  15.99  16.01  16.01  16.08
         16.54  16.56  16.78  16.79  16.80  17.43  17.44  17.44  18.19  18.22
         18.22  19.06  19.06  19.07  19.49  19.49  19.50  20.10  20.11  22.04
         28.53  28.53  28.56  30.01  30.05  30.14  30.14  30.15  52.27  52.27
         52.37  56.67  61.83  61.90  62.12  71.78  71.84  71.86  74.13  74.41
         87.06  87.09  87.10 102.94
siesta: Fermi energy =      -5.340589 eV

siesta: Program's energy decomposition (eV):
siesta: Ebs     =      -344.400335
siesta: Eions   =      1510.441798
siesta: Ena     =       465.187305
siesta: Ekin    =       325.326216
siesta: Enl     =       111.045324
siesta: DEna    =         5.052557
siesta: DUscf   =         1.530464
siesta: DUext   =         0.000000
siesta: Exc     =      -259.671755
siesta: eta*DQ  =         0.000000
siesta: Emadel  =         0.000000
siesta: Emeta   =         0.000000
siesta: Emolmec =         0.000000
siesta: Ekinion =         0.000000
siesta: Eharris =      -861.971663
siesta: Etot    =      -861.971689
siesta: FreeEng =      -861.971689

siesta: Final energy (eV):
siesta:  Band Struct. =    -344.400335
siesta:       Kinetic =     325.326216
siesta:       Hartree =      57.778113
siesta:    Ext. field =       0.000000
siesta:   Exch.-corr. =    -259.671755
siesta:  Ion-electron =    -446.702080
siesta:       Ion-ion =    -538.702182
siesta:       Ekinion =       0.000000
siesta:         Total =    -861.971689

siesta: Stress tensor (static) (eV/Ang**3):
siesta:    -0.000958    0.000181    0.000181
siesta:     0.000181   -0.000958    0.000181
siesta:     0.000181    0.000181   -0.000958

siesta: Constrained stress tensor (static) (eV/Ang**3):
siesta:    -0.000958    0.000181    0.000181
siesta:     0.000181   -0.000958    0.000181
siesta:     0.000181    0.000181   -0.000958

siesta: Cell volume =        160.881049 Ang**3

siesta: Pressure (static):
siesta:                Solid            Molecule  Units
siesta:           0.00001043          0.00001260  Ry/Bohr**3
siesta:           0.00095783          0.00115717  eV/Ang**3
siesta:           1.53462969          1.85401837  kBar
(Free)E+ p_basis*V_orbitals  =        -852.998086
(Free)Eharris+ p_basis*V_orbitals  =        -852.996461

* Maximum dynamic memory allocated : Node    0 =    95 MB

* Maximum memory occured during init_pulay_arrrays            

timer: CPU execution times:
timer:  Routine       Calls   Time/call    Tot.time        %
timer:  siesta            1    1481.553    1481.553   100.00
timer:  Setup             1       0.116       0.116     0.01
timer:  bands             3       0.560       1.680     0.11
timer:  writewave         3       0.007       0.020     0.00
timer:  KSV_init          1       0.000       0.000     0.00
timer:  IterMD           14     105.689    1479.640    99.87
timer:  hsparse          14       0.224       3.132     0.21
timer:  overlap          14       0.130       1.820     0.12
timer:  IterSCF          68      17.938    1219.784    82.33
timer:  kinefsm          28       0.128       3.596     0.24
timer:  nlefsm           28       4.873     136.448     9.21
timer:  DHSCF            82       9.996     819.675    55.33
timer:  DHSCF1           14       0.050       0.700     0.05
timer:  DHSCF2           14       2.183      30.558     2.06
timer:  REORD           520       0.000       0.040     0.00
timer:  POISON           96       0.005       0.464     0.03
timer:  DHSCF3           82       8.896     729.494    49.24
timer:  rhoofd           82       4.050     332.081    22.41
timer:  cellXC           82       0.012       0.956     0.06
timer:  vmat             82       4.828     395.933    26.72
timer:  MolMec           28       0.000       0.000     0.00
timer:  diagon           68       7.491     509.384    34.38
timer:  c-eigval       8277       0.019     155.942    10.53
timer:  c-buildHS      8277       0.014     118.075     7.97
timer:  cdiag         16454       0.007     116.835     7.89
timer:  cdiag1        16454       0.001       8.701     0.59
timer:  cdiag2        16454       0.002      30.525     2.06
timer:  cdiag3        16454       0.005      74.643     5.04
timer:  cdiag4        16454       0.000       2.369     0.16
timer:  c-eigvec       8177       0.024     194.095    13.10
timer:  c-buildD       8176       0.020     160.283    10.82
timer:  DHSCF4           14       4.207      58.903     3.98
timer:  dfscf            14       4.046      56.643     3.82
timer:  overfsm          14       0.125       1.757     0.12
timer:  optical           1       0.000       0.000     0.00
  

elaps: ELAPSED times:
elaps:  Routine       Calls   Time/call    Tot.time        %
elaps:  siesta            1    1489.519    1489.519   100.00
elaps:  Setup             1       0.118       0.118     0.01
elaps:  bands             3       0.562       1.685     0.11
elaps:  writewave         3       0.007       0.020     0.00
elaps:  KSV_init          1       0.000       0.000     0.00
elaps:  IterMD           14     106.257    1487.598    99.87
elaps:  hsparse          14       0.226       3.160     0.21
elaps:  overlap          14       0.130       1.816     0.12
elaps:  IterSCF          68      18.037    1226.496    82.34
elaps:  kinefsm          28       0.129       3.604     0.24
elaps:  nlefsm           28       4.894     137.023     9.20
elaps:  DHSCF            82      10.048     823.916    55.31
elaps:  DHSCF1           14       0.050       0.702     0.05
elaps:  DHSCF2           14       2.194      30.714     2.06
elaps:  REORD           520       0.000       0.051     0.00
elaps:  POISON           96       0.005       0.449     0.03
elaps:  DHSCF3           82       8.943     733.321    49.23
elaps:  rhoofd           82       4.070     333.735    22.41
elaps:  cellXC           82       0.012       0.974     0.07
elaps:  vmat             82       4.855     398.119    26.73
elaps:  MolMec           28       0.000       0.000     0.00
elaps:  diagon           68       7.536     512.421    34.40
elaps:  c-eigval       8277       0.019     156.866    10.53
elaps:  c-buildHS      8277       0.014     118.778     7.97
elaps:  cdiag         16454       0.007     117.364     7.88
elaps:  cdiag1        16454       0.001       8.642     0.58
elaps:  cdiag2        16454       0.002      30.625     2.06
elaps:  cdiag3        16454       0.005      75.385     5.06
elaps:  cdiag4        16454       0.000       2.284     0.15
elaps:  c-eigvec       8177       0.024     195.191    13.10
elaps:  c-buildD       8176       0.020     161.317    10.83
elaps:  DHSCF4           14       4.226      59.158     3.97
elaps:  dfscf            14       4.063      56.883     3.82
elaps:  overfsm          14       0.126       1.767     0.12
elaps:  optical           1       0.000       0.000     0.00
  
>> End of run:   9-MAY-2013  18:07:57
