Siesta Version:                                        siesta-3.2
Architecture  : x86_64-unknown-linux-gnu--unknown
Compiler flags: f95 -g -O2
Siesta Version:                                        siesta-3.2
Architecture  : x86_64-unknown-linux-gnu--unknown
Compiler flags: f95 -g -O2
SERIAL version

* Running in serial mode
SERIAL version

* Running in serial mode
>> Start of run:   9-MAY-2013  17:38:06
>> Start of run:   9-MAY-2013  17:38:06

                           ***********************       
                           *  WELCOME TO SIESTA  *       
                           ***********************       

                           ***********************       
                           *  WELCOME TO SIESTA  *       
                           ***********************       

reinit: Reading from standard input

reinit: Reading from standard input
************************** Dump of input data file ****************************
# FDF for silicon
SystemName             silicon          # Descriptive name of the system
SystemLabel            si          # Short name for naming files
NumberOfAtoms 8
NumberOfSpecies 1
%block ChemicalSpeciesLabel
1 14 Si
%endblock ChemicalSpeciesLabel
LatticeConstant  5.43 Ang
##Basis set Definition##
PAO.BasisType          split        # Type of PAO basis set
PAO.EnergyShift        50 meV
PAO.BasisSize          DZP          # (DZP) Double-z + polarization
#%block LatticeVectors
#0.500 0.500 0.000
#0.500 0.000 0.500
#0.000 0.500 0.500
#%endblock LatticeVectors
AtomicCoordinatesFormat NotScaledCartesianAng
%block AtomicCoordinatesAndAtomicSpecies
	0.00000000	0.00000000	0.00000000  1 Si  1
	1.36000000	1.36000000	1.36000000  1 Si  2
	2.72000000	2.72000000	0.00000000  1 Si  3
	4.08000000	4.08000000	1.36000000  1 Si  4
	2.72000000	0.00000000	2.72000000  1 Si  5
	4.08000000	1.36000000	4.08000000  1 Si  6
	0.00000000	2.72000000	2.72000000  1 Si  7
	1.36000000	4.08000000	4.08000000  1 Si  8
%endblock AtomicCoordinatesAndAtomicSpecies
MeshCutoff 100.0 Ry # 100, 120, 180, 260
kgrid_cutoff 30.0 Bohr # 30, 35, 40, 45
DM.Mixingweight  0.3
DM.NumberPulay    3
DM.Tolerance      1.d-3
DM.UseSaveDM      true
ElectronicTemperature 25 meV
SolutionMethod    diagon
XC.functional     LDA	    # Local Density Approximation
XC.authors        CA           # Ceperley-Alder
SpinPolarized     false
MD.TypeOfRun           CG           # Type of dynamics:
MD.VariableCell        true
MD.NumCGsteps          100          # Number of CG steps for coordinate optimization
MD.MaxCGDispl          0.2 Bohr     # Maximum atomic displacement
                                    #   in one CG step (Bohr)
MD.MaxForceTol         0.04 eV/Ang  # Tolerance in the maximum
                                    #   atomic force (Ry/Bohr)
				
##Output Specification##
WriteMDhistory         true         # Trajectory information
WriteCoorStep          true
WriteCoorXmol          true
WriteMDXmol            true
WriteEigenvalues true
WriteKbands      true
WriteBands       true
WriteWaveFunctions true
WriteMullikenPoP   1
%block BandLines
1	1.000	1.000 1.000 L
25	0.000	0.000	0.000 \Gamma
30	2.000	0.000	0.000 X
10	2.000	0.500	0.500 U
35	0.000	0.000	0.000 \Gamma
%endblock BandLines
%block WaveFuncKPoints
0.0 0.0 0.0 from 1 to 50 # > 16 = 4/2*8 (Valenzelektronen/2, Atomzahl ...)
%endblock WaveFuncKpoints
************************** End of input data file *****************************

reinit: -----------------------------------------------------------------------
reinit: System Name: silicon
reinit: -----------------------------------------------------------------------
reinit: System Label: si                                                          
reinit: -----------------------------------------------------------------------
************************** Dump of input data file ****************************
************************** End of input data file *****************************

reinit: -----------------------------------------------------------------------
reinit: System Name: 
reinit: -----------------------------------------------------------------------
reinit: System Label: siesta                                                      
reinit: -----------------------------------------------------------------------

initatom: Reading input for the pseudopotentials and atomic orbitals ----------

initatom: Reading input for the pseudopotentials and atomic orbitals ----------
 Species number:            1  Label: Si Atomic number:          14
 Species number:            1  Label: Si Atomic number:          14
Ground state valence configuration:   3s02  3p02
Reading pseudopotential information in formatted form from Si.psf

Valence configuration for pseudopotential generation:
3s( 2.00) rc: 1.75
3p( 2.00) rc: 1.94
3d( 0.00) rc: 2.09
4f( 0.00) rc: 2.09
Ground state valence configuration:   3s02  3p02
Reading pseudopotential information in formatted form from Si.psf

Valence configuration for pseudopotential generation:
3s( 2.00) rc: 1.75
3p( 2.00) rc: 1.94
3d( 0.00) rc: 2.09
4f( 0.00) rc: 2.09
For Si, standard SIESTA heuristics set lmxkb to 3
 (one more than the basis l, including polarization orbitals).
Use PS.lmax or PS.KBprojectors blocks to override.

<basis_specs>
===============================================================================
Si                   Z=  14    Mass=  28.090        Charge= 0.17977+309
Lmxo=1 Lmxkb= 3    BasisType=split      Semic=F
L=0  Nsemic=0  Cnfigmx=3
          n=1  nzeta=2  polorb=0
            splnorm:   0.15000    
               vcte:    0.0000    
               rinn:    0.0000    
                rcs:    0.0000      0.0000    
            lambdas:    1.0000      1.0000    
L=1  Nsemic=0  Cnfigmx=3
          n=1  nzeta=2  polorb=1
            splnorm:   0.15000    
               vcte:    0.0000    
               rinn:    0.0000    
                rcs:    0.0000      0.0000    
            lambdas:    1.0000      1.0000    
-------------------------------------------------------------------------------
L=0  Nkbl=1  erefs: 0.17977+309
L=1  Nkbl=1  erefs: 0.17977+309
L=2  Nkbl=1  erefs: 0.17977+309
L=3  Nkbl=1  erefs: 0.17977+309
===============================================================================
</basis_specs>

atom: Called for Si                    (Z =  14)

read_vps: Pseudopotential generation method:
read_vps: ATM3      Troullier-Martins                       
Total valence charge:    4.00000
For Si, standard SIESTA heuristics set lmxkb to 3
 (one more than the basis l, including polarization orbitals).
Use PS.lmax or PS.KBprojectors blocks to override.

xc_check: Exchange-correlation functional:
xc_check: Ceperley-Alder

<basis_specs>
===============================================================================
Si                   Z=  14    Mass=  28.090        Charge= 0.17977+309
Lmxo=1 Lmxkb= 3    BasisType=split      Semic=F
L=0  Nsemic=0  Cnfigmx=3
          n=1  nzeta=2  polorb=0
            splnorm:   0.15000    
               vcte:    0.0000    
               rinn:    0.0000    
                rcs:    0.0000      0.0000    
            lambdas:    1.0000      1.0000    
L=1  Nsemic=0  Cnfigmx=3
          n=1  nzeta=2  polorb=1
            splnorm:   0.15000    
               vcte:    0.0000    
               rinn:    0.0000    
                rcs:    0.0000      0.0000    
            lambdas:    1.0000      1.0000    
-------------------------------------------------------------------------------
L=0  Nkbl=1  erefs: 0.17977+309
L=1  Nkbl=1  erefs: 0.17977+309
L=2  Nkbl=1  erefs: 0.17977+309
L=3  Nkbl=1  erefs: 0.17977+309
===============================================================================
</basis_specs>

atom: Called for Si                    (Z =  14)

read_vps: Pseudopotential generation method:
read_vps: ATM3      Troullier-Martins                       
Total valence charge:    4.00000

xc_check: Exchange-correlation functional:
xc_check: Ceperley-Alder
V l=0 = -2*Zval/r beyond r=  2.5494
V l=1 = -2*Zval/r beyond r=  2.5494
V l=2 = -2*Zval/r beyond r=  2.5494
V l=3 = -2*Zval/r beyond r=  2.5494
All V_l potentials equal beyond r=  2.0613
This should be close to max(r_c) in ps generation
All pots = -2*Zval/r beyond r=  2.5494

VLOCAL1: 99.0% of the norm of Vloc inside     10.216 Ry
VLOCAL1: 99.9% of the norm of Vloc inside     23.282 Ry
atom: Maximum radius for 4*pi*r*r*local-pseudopot. charge    2.45560
atom: Maximum radius for r*vlocal+2*Zval:    2.14012
V l=0 = -2*Zval/r beyond r=  2.5494
V l=1 = -2*Zval/r beyond r=  2.5494
V l=2 = -2*Zval/r beyond r=  2.5494
V l=3 = -2*Zval/r beyond r=  2.5494
All V_l potentials equal beyond r=  2.0613
This should be close to max(r_c) in ps generation
All pots = -2*Zval/r beyond r=  2.5494

VLOCAL1: 99.0% of the norm of Vloc inside     10.216 Ry
VLOCAL1: 99.9% of the norm of Vloc inside     23.282 Ry
atom: Maximum radius for 4*pi*r*r*local-pseudopot. charge    2.45560
GHOST: No ghost state for L =  0
atom: Maximum radius for r*vlocal+2*Zval:    2.14012
GHOST: No ghost state for L =  1
GHOST: No ghost state for L =  0
GHOST: No ghost state for L =  2
GHOST: No ghost state for L =  1
GHOST: No ghost state for L =  3

KBgen: Kleinman-Bylander projectors: 
   l= 0   rc=  2.782581   el= -0.796617   Ekb=  4.840502   kbcos=  0.288423
   l= 1   rc=  2.888916   el= -0.307040   Ekb=  1.512733   kbcos=  0.296968
   l= 2   rc=  2.962054   el=  0.002313   Ekb= -2.156507   kbcos= -0.061834
GHOST: No ghost state for L =  2
   l= 3   rc=  3.192765   el=  0.003402   Ekb= -0.600958   kbcos= -0.007408

KBgen: Total number of  Kleinman-Bylander projectors:   16
atom: -------------------------------------------------------------------------

atom: SANKEY-TYPE ORBITALS:
atom: Selected multiple-zeta basis: split     

SPLIT: Orbitals with angular momentum L= 0

SPLIT: Basis orbitals for state 3s
GHOST: No ghost state for L =  3

SPLIT: PAO cut-off radius determined from an
SPLIT: energy shift=  0.003675 Ry

KBgen: Kleinman-Bylander projectors: 
   l= 0   rc=  2.782581   el= -0.796617   Ekb=  4.840502   kbcos=  0.288423
   l= 1   rc=  2.888916   el= -0.307040   Ekb=  1.512733   kbcos=  0.296968
   l= 2   rc=  2.962054   el=  0.002313   Ekb= -2.156507   kbcos= -0.061834
   l= 3   rc=  3.192765   el=  0.003402   Ekb= -0.600958   kbcos= -0.007408

KBgen: Total number of  Kleinman-Bylander projectors:   16
atom: -------------------------------------------------------------------------

atom: SANKEY-TYPE ORBITALS:
atom: Selected multiple-zeta basis: split     

SPLIT: Orbitals with angular momentum L= 0

SPLIT: Basis orbitals for state 3s

   izeta = 1
                 lambda =    1.000000
                     rc =    6.116033
                 energy =   -0.793486
                kinetic =    0.528761
    potential(screened) =   -1.322246
       potential(ionic) =   -3.766038

SPLIT: PAO cut-off radius determined from an
SPLIT: energy shift=  0.003675 Ry

   izeta = 1
                 lambda =    1.000000
                     rc =    6.116033
                 energy =   -0.793486
                kinetic =    0.528761
    potential(screened) =   -1.322246
       potential(ionic) =   -3.766038

   izeta = 2
                 rmatch =    4.530823
              splitnorm =    0.150000
                 energy =   -0.697320
                kinetic =    0.853435
    potential(screened) =   -1.550756
       potential(ionic) =   -4.120809

   izeta = 2
                 rmatch =    4.530823
              splitnorm =    0.150000
                 energy =   -0.697320
                kinetic =    0.853435
    potential(screened) =   -1.550756
       potential(ionic) =   -4.120809

SPLIT: Orbitals with angular momentum L= 1

SPLIT: Basis orbitals for state 3p

SPLIT: PAO cut-off radius determined from an
SPLIT: energy shift=  0.003675 Ry

SPLIT: Orbitals with angular momentum L= 1

SPLIT: Basis orbitals for state 3p

SPLIT: PAO cut-off radius determined from an
SPLIT: energy shift=  0.003675 Ry

   izeta = 1
                 lambda =    1.000000
                     rc =    7.853192
                 energy =   -0.303674
                kinetic =    0.798475
    potential(screened) =   -1.102149
       potential(ionic) =   -3.307324

   izeta = 1
                 lambda =    1.000000
                     rc =    7.853192
                 energy =   -0.303674
                kinetic =    0.798475
    potential(screened) =   -1.102149
       potential(ionic) =   -3.307324

   izeta = 2
                 rmatch =    5.397360
              splitnorm =    0.150000
                 energy =   -0.229357
                kinetic =    1.170483
    potential(screened) =   -1.399841
       potential(ionic) =   -3.814095

   izeta = 2
                 rmatch =    5.397360
              splitnorm =    0.150000
                 energy =   -0.229357
                kinetic =    1.170483
    potential(screened) =   -1.399841
       potential(ionic) =   -3.814095

POLgen: Perturbative polarization orbital with L=  2

POLgen: Polarization orbital for state 3p

POLgen: Perturbative polarization orbital with L=  2

POLgen: Polarization orbital for state 3p

   izeta = 1
                     rc =    7.853192
                 energy =    0.331669
                kinetic =    1.088595
    potential(screened) =   -0.756926
       potential(ionic) =   -2.714870

   izeta = 1
                     rc =    7.853192
                 energy =    0.331669
                kinetic =    1.088595
    potential(screened) =   -0.756926
       potential(ionic) =   -2.714870
atom: Total number of Sankey-type orbitals: 13

atm_pop: Valence configuration (for local Pseudopot. screening):
 3s( 2.00)                                                            
 3p( 2.00)                                                            
atom: Total number of Sankey-type orbitals: 13
Vna: chval, zval:    4.00000   4.00000

atm_pop: Valence configuration (for local Pseudopot. screening):

 3s( 2.00)                                                            
 3p( 2.00)                                                            
Vna:  Cut-off radius for the neutral-atom potential:   7.853192
Vna: chval, zval:    4.00000   4.00000

Vna:  Cut-off radius for the neutral-atom potential:   7.853192

atom: _________________________________________________________________________

prinput: Basis input ----------------------------------------------------------

PAO.BasisType split     


atom: _________________________________________________________________________
%block ChemicalSpeciesLabel
    1   14 Si                      # Species index, atomic number, species label
%endblock ChemicalSpeciesLabel

%block PAO.Basis                 # Define Basis set

Si                    2                    # Species label, number of l-shells
prinput: Basis input ----------------------------------------------------------
 n=3   0   2                         # n, l, Nzeta 

PAO.BasisType split     
   6.116      4.531   
   1.000      1.000   

%block ChemicalSpeciesLabel
 n=3   1   2 P   1                   # n, l, Nzeta, Polarization, NzetaPol
    1   14 Si                      # Species index, atomic number, species label
%endblock ChemicalSpeciesLabel

%block PAO.Basis                 # Define Basis set
Si                    2                    # Species label, number of l-shells
 n=3   0   2                         # n, l, Nzeta 
   7.853      5.397   
   1.000      1.000   
%endblock PAO.Basis

prinput: ----------------------------------------------------------------------

   6.116      4.531   
   1.000      1.000   
 n=3   1   2 P   1                   # n, l, Nzeta, Polarization, NzetaPol
   7.853      5.397   
   1.000      1.000   
%endblock PAO.Basis

prinput: ----------------------------------------------------------------------

coor:   Atomic-coordinates input format  =     Cartesian coordinates
coor:                                          (in Angstroms)

siesta: Atomic coordinates (Bohr) and species
siesta:      0.00000   0.00000   0.00000  1        1
siesta:      2.57003   2.57003   2.57003  1        2
siesta:      5.14006   5.14006   0.00000  1        3
siesta:      7.71009   7.71009   2.57003  1        4
siesta:      5.14006   0.00000   5.14006  1        5
siesta:      7.71009   2.57003   7.71009  1        6
siesta:      0.00000   5.14006   5.14006  1        7
siesta:      2.57003   7.71009   7.71009  1        8

siesta: System type = bulk      
coor:   Atomic-coordinates input format  =     Cartesian coordinates
coor:                                          (in Angstroms)

initatomlists: Number of atoms, orbitals, and projectors:      8   104   128

siesta: ******************** Simulation parameters ****************************
siesta:
siesta: The following are some of the parameters of the simulation.
siesta: A complete list of the parameters used, including default values,
siesta: can be found in file out.fdf
siesta:
redata: Non-Collinear-spin run           =     F
redata: SpinPolarized (Up/Down) run      =     F
redata: Number of spin components        =     1
redata: Long output                      =     F
redata: Number of Atomic Species         =        1
redata: Charge density info will appear in .RHO file
redata: Write Mulliken Pop.              =     Atomic and Orbital charges

siesta: Atomic coordinates (Bohr) and species
siesta:      0.00000   0.00000   0.00000  1        1
siesta:      2.57003   2.57003   2.57003  1        2
siesta:      5.14006   5.14006   0.00000  1        3
siesta:      7.71009   7.71009   2.57003  1        4
siesta:      5.14006   0.00000   5.14006  1        5
siesta:      7.71009   2.57003   7.71009  1        6
siesta:      0.00000   5.14006   5.14006  1        7
siesta:      2.57003   7.71009   7.71009  1        8

siesta: System type = bulk      
redata: Mesh Cutoff                      =   100.0000  Ry
redata: Net charge of the system         =     0.0000 |e|
redata: Max. number of SCF Iter          =       50

initatomlists: Number of atoms, orbitals, and projectors:      8   104   128
redata: Performing Pulay mixing using    =     3 iterations

siesta: ******************** Simulation parameters ****************************
siesta:
siesta: The following are some of the parameters of the simulation.
siesta: A complete list of the parameters used, including default values,
siesta: can be found in file out.fdf
siesta:
redata: Mix DM in first SCF step ?       =     F
redata: Non-Collinear-spin run           =     F
redata: SpinPolarized (Up/Down) run      =     F
redata: Number of spin components        =     1
redata: Write Pulay info on disk?        =     F
redata: Long output                      =     F
redata: Number of Atomic Species         =        1
redata: Discard 1st Pulay DM after  kick =     F
redata: New DM Mixing Weight             =     0.3000
redata: Charge density info will appear in .RHO file
redata: Write Mulliken Pop.              =     Atomic and Orbital charges
redata: New DM Occupancy tolerance       = 0.000000000001
redata: No kicks to SCF
redata: DM Mixing Weight for Kicks       =     0.5000
redata: DM Tolerance for SCF             =     0.001000
redata: Mesh Cutoff                      =   100.0000  Ry
redata: Require Energy convergence for SCF =     F
redata: Net charge of the system         =     0.0000 |e|
redata: DM Energy tolerance for SCF      =     0.000100 eV
redata: Require Harris convergence for SCF =     F
redata: Max. number of SCF Iter          =       50
redata: DM Harris energy tolerance for SCF =     0.000100 eV
redata: Using Saved Data (generic)   =     F
redata: Performing Pulay mixing using    =     3 iterations
redata: Use continuation files for DM    =     T
redata: Mix DM in first SCF step ?       =     F
redata: Neglect nonoverlap interactions  =     F
redata: Write Pulay info on disk?        =     F
redata: Method of Calculation            =     Diagonalization
redata: Divide and Conquer               =     T
redata: Discard 1st Pulay DM after  kick =     F
redata: New DM Mixing Weight             =     0.3000
redata: Electronic Temperature           =     0.0018  Ry
redata: New DM Occupancy tolerance       = 0.000000000001
redata: Fix the spin of the system       =     F
redata: No kicks to SCF
redata: DM Mixing Weight for Kicks       =     0.5000
redata: DM Tolerance for SCF             =     0.001000
redata: Require Energy convergence for SCF =     F
redata: DM Energy tolerance for SCF      =     0.000100 eV
redata: Require Harris convergence for SCF =     F
redata: DM Harris energy tolerance for SCF =     0.000100 eV
redata: Using Saved Data (generic)   =     F
redata: Use continuation files for DM    =     T
redata: Neglect nonoverlap interactions  =     F
redata: Method of Calculation            =     Diagonalization
redata: Divide and Conquer               =     T
redata: Electronic Temperature           =     0.0018  Ry
redata: Fix the spin of the system       =     F
redata: Dynamics option                  =     CG coord. optimization
redata: Variable cell                    =     T
redata: Use continuation files for CG    =     F
redata: Max atomic displ per move        =     0.2000  Bohr
redata: Maximum number of CG moves       =      100
redata: Force tolerance                  =     0.0016  Ry/Bohr
redata: Stress tolerance                 =     1.0000  GPa
redata: Dynamics option                  =     CG coord. optimization
redata: Variable cell                    =     T
redata: Use continuation files for CG    =     F
redata: Max atomic displ per move        =     0.2000  Bohr
redata: Maximum number of CG moves       =      100
redata: Force tolerance                  =     0.0016  Ry/Bohr
redata: Stress tolerance                 =     1.0000  GPa
redata: ***********************************************************************
redata: ***********************************************************************
Total number of electrons:    32.000000
Total ionic charge:    32.000000
 Kpoints in:          108 . Kpoints trimmed:          108
Total number of electrons:    32.000000
Total ionic charge:    32.000000

siesta: k-grid: Number of k-points =   108
siesta: k-grid: Cutoff (effective) =    16.290 Ang
siesta: k-grid: Supercell and displacements
siesta: k-grid:    0   6   0      0.500
siesta: k-grid:    0   0   6      0.500
siesta: k-grid:    6   0   0      0.500
 Kpoints in:          108 . Kpoints trimmed:          108

siesta: k-grid: Number of k-points =   108
siesta: k-grid: Cutoff (effective) =    16.290 Ang
siesta: k-grid: Supercell and displacements
siesta: k-grid:    0   6   0      0.500
siesta: k-grid:    0   0   6      0.500
siesta: k-grid:    6   0   0      0.500
Naive supercell factors:     5    5    5

superc: Internal auxiliary supercell:     5 x     5 x     5  =     125
superc: Number of atoms, orbitals, and projectors:   1000  13000  16000

* Maximum dynamic memory allocated =     1 MB

siesta:                 ==============================
                            Begin CG move =      0
                        ==============================

outcoor: Atomic coordinates (Ang):                          
    0.00000000    0.00000000    0.00000000   1       1  Si
    1.36000000    1.36000000    1.36000000   1       2  Si
    2.72000000    2.72000000    0.00000000   1       3  Si
    4.08000000    4.08000000    1.36000000   1       4  Si
    2.72000000    0.00000000    2.72000000   1       5  Si
    4.08000000    1.36000000    4.08000000   1       6  Si
    0.00000000    2.72000000    2.72000000   1       7  Si
    1.36000000    4.08000000    4.08000000   1       8  Si

superc: Internal auxiliary supercell:     5 x     5 x     5  =     125
superc: Number of atoms, orbitals, and projectors:   1000  13000  16000

outcell: Unit cell vectors (Ang):
        5.430000    0.000000    0.000000
        0.000000    5.430000    0.000000
        0.000000    0.000000    5.430000

outcell: Cell vector modules (Ang)   :    5.430000    5.430000    5.430000
outcell: Cell angles (23,13,12) (deg):     90.0000     90.0000     90.0000
outcell: Cell volume (Ang**3)        :    160.1030
Naive supercell factors:     5    5    5

superc: Internal auxiliary supercell:     5 x     5 x     5  =     125
superc: Number of atoms, orbitals, and projectors:   1000  13000  16000

* Maximum dynamic memory allocated =     1 MB

siesta:                 ==============================
                            Begin CG move =      0
                        ==============================

outcoor: Atomic coordinates (Ang):                          
    0.00000000    0.00000000    0.00000000   1       1  Si
    1.36000000    1.36000000    1.36000000   1       2  Si
    2.72000000    2.72000000    0.00000000   1       3  Si
    4.08000000    4.08000000    1.36000000   1       4  Si
    2.72000000    0.00000000    2.72000000   1       5  Si
    4.08000000    1.36000000    4.08000000   1       6  Si
    0.00000000    2.72000000    2.72000000   1       7  Si
    1.36000000    4.08000000    4.08000000   1       8  Si

superc: Internal auxiliary supercell:     5 x     5 x     5  =     125
superc: Number of atoms, orbitals, and projectors:   1000  13000  16000

outcell: Unit cell vectors (Ang):
        5.430000    0.000000    0.000000
        0.000000    5.430000    0.000000
        0.000000    0.000000    5.430000

outcell: Cell vector modules (Ang)   :    5.430000    5.430000    5.430000
outcell: Cell angles (23,13,12) (deg):     90.0000     90.0000     90.0000
outcell: Cell volume (Ang**3)        :    160.1030
New_DM. Step:     1
Initializing Density Matrix...

iodm: Reading Density Matrix from files
New_DM. Step:     1
Initializing Density Matrix...

InitMesh: MESH =    36 x    36 x    36 =       46656
InitMesh: Mesh cutoff (required, used) =   100.000   121.481 Ry

InitMesh: MESH =    36 x    36 x    36 =       46656
InitMesh: Mesh cutoff (required, used) =   100.000   121.481 Ry

* Maximum dynamic memory allocated =    77 MB

* Maximum dynamic memory allocated =    80 MB

stepf: Fermi-Dirac step function

stepf: Fermi-Dirac step function

siesta: Program's energy decomposition (eV):
siesta: Ebs     =      -355.364898
siesta: Eions   =      1510.441798
siesta: Ena     =       464.887623
siesta: Ekin    =       288.938730
siesta: Enl     =       135.452916
siesta: DEna    =         0.000001
siesta: DUscf   =         0.000000
siesta: DUext   =         0.000000
siesta: Exc     =      -255.299174
siesta: eta*DQ  =         0.000000
siesta: Emadel  =         0.000000
siesta: Emeta   =         0.000000
siesta: Emolmec =         0.000000
siesta: Ekinion =         0.000000
siesta: Eharris =      -862.428795
siesta: Etot    =      -876.461702
siesta: FreeEng =      -876.461702

siesta: iscf   Eharris(eV)      E_KS(eV)   FreeEng(eV)   dDmax  Ef(eV)
siesta:    1     -862.4288     -876.4617     -876.4617  1.7302 -5.6182
timer: Routine,Calls,Time,% = IterSCF        1      21.201  97.18
elaps: Routine,Calls,Wall,% = IterSCF        1      21.335  97.16

siesta: Program's energy decomposition (eV):
siesta: Ebs     =      -345.077589
siesta: Eions   =      1510.441798
siesta: Ena     =       464.887623
siesta: Ekin    =       325.936588
siesta: Enl     =       111.157041
siesta: DEna    =         4.891318
siesta: DUscf   =         1.535829
siesta: DUext   =         0.000000
siesta: Exc     =      -259.943191
siesta: eta*DQ  =         0.000000
siesta: Emadel  =         0.000000
siesta: Emeta   =         0.000000
siesta: Emolmec =         0.000000
siesta: Ekinion =         0.000000
siesta: Eharris =      -861.968297
siesta: Etot    =      -861.976590
siesta: FreeEng =      -861.976590

siesta: iscf   Eharris(eV)      E_KS(eV)   FreeEng(eV)   dDmax  Ef(eV)
siesta:    1     -861.9683     -861.9766     -861.9766  0.0011 -5.3500
timer: Routine,Calls,Time,% = IterSCF        1      21.165  97.12
elaps: Routine,Calls,Wall,% = IterSCF        1      21.341  97.12
siesta:    2     -861.9962     -861.8651     -861.8651  0.1033 -5.2866
siesta:    2     -861.9683     -861.9683     -861.9683  0.0001 -5.3497
siesta:    3     -861.9731     -862.7053     -862.7053  0.0595 -5.3278

siesta: E_KS(eV) =             -861.9690

siesta: E_KS - E_eggbox =      -861.9690

siesta: Atomic forces (eV/Ang):
----------------------------------------
   Tot   -0.001959   -0.001956   -0.001973
----------------------------------------
   Max    0.080121
   Res    0.056610    sqrt( Sum f_i^2 / 3N )
----------------------------------------
   Max    0.080121    constrained

Stress-tensor-Voigt (kbar):       -5.66       -5.66       -5.66        1.08        1.09        1.09
(Free)E + p*V (eV/cell)     -861.4036
Target enthalpy (eV/cell)     -861.9690

siesta: Stress tensor (static) (eV/Ang**3):
        -0.003531    0.000677    0.000677
         0.000677   -0.003531    0.000677
         0.000677    0.000677   -0.003531

siesta: Pressure (static):          5.65778605  kBar

siesta: Stress tensor (total) (eV/Ang**3):
        -0.003531    0.000677    0.000677
         0.000677   -0.003531    0.000677
         0.000677    0.000677   -0.003531

siesta: Pressure (total):          5.65778605  kBar

mulliken: Mulliken Atomic and Orbital Populations:

Species: Si                  
Atom  Qatom  Qorb
               3s      3s      3py     3pz     3px     3py     3pz     3px     
               3Pdxy   3Pdyz   3Pdz2   3Pdxz   3Pdx2-y2
   1  4.001   0.628   0.575   0.211   0.211   0.211   0.544   0.544   0.544
              0.126   0.126   0.077   0.126   0.077
   2  4.000   0.641   0.568   0.216   0.216   0.216   0.539   0.539   0.539
              0.125   0.125   0.076   0.125   0.076
   3  4.000   0.636   0.570   0.213   0.217   0.213   0.541   0.539   0.541
              0.126   0.125   0.076   0.125   0.077
   4  4.000   0.632   0.573   0.214   0.210   0.214   0.542   0.544   0.542
              0.126   0.126   0.077   0.126   0.076
   5  4.000   0.636   0.570   0.217   0.213   0.213   0.539   0.541   0.541
              0.125   0.125   0.076   0.126   0.076
   6  4.000   0.632   0.573   0.210   0.214   0.214   0.544   0.542   0.542
              0.126   0.126   0.077   0.126   0.077
   7  4.000   0.636   0.570   0.213   0.213   0.217   0.541   0.541   0.539
              0.125   0.126   0.076   0.125   0.076
   8  4.000   0.632   0.573   0.214   0.214   0.210   0.542   0.542   0.544
              0.126   0.126   0.077   0.126   0.077

mulliken: Qtot =       32.000

cgvc: No target stress found, assuming hydrostatic MD.TargetPressure.

cgvc: Target stress (kBar)
cgvc:        -0.000       0.000       0.000
cgvc:         0.000      -0.000       0.000
cgvc:         0.000       0.000      -0.000

* Maximum dynamic memory allocated =    81 MB

siesta:                 ==============================
                            Begin CG move =      1
                        ==============================

outcoor: Atomic coordinates (Ang):                          
    0.02472748    0.02472829    0.02472754   1       1  Si
    1.36821985    1.36822055    1.36821896   1       2  Si
    2.73264737    2.73264711    0.01720686   1       3  Si
    4.07630931    4.07630938    1.36180884   1       4  Si
    2.73264555    0.01721166    2.73264597   1       5  Si
    4.07631144    1.36180996    4.07631067   1       6  Si
    0.01721156    2.73264610    2.73264472   1       7  Si
    1.36181091    4.07631157    4.07631090   1       8  Si
 Kpoints in:          108 . Kpoints trimmed:          108

siesta: k-grid: Number of k-points =   108
siesta: k-grid: Cutoff (effective) =    16.404 Ang
siesta: k-grid: Supercell and displacements
siesta: k-grid:    0   0   6      0.500
siesta: k-grid:    6   0   0      0.500
siesta: k-grid:    0   6   0      0.500
Naive supercell factors:     5    5    5

superc: Internal auxiliary supercell:     5 x     5 x     5  =     125
superc: Number of atoms, orbitals, and projectors:   1000  13000  16000

outcell: Unit cell vectors (Ang):
        5.468047   -0.007296   -0.007297
       -0.007296    5.468047   -0.007297
       -0.007297   -0.007297    5.468047

outcell: Cell vector modules (Ang)   :    5.468057    5.468057    5.468057
outcell: Cell angles (23,13,12) (deg):     90.1528     90.1528     90.1528
outcell: Cell volume (Ang**3)        :    163.4912
New_DM. Step:     2
Re-using DM from previous geometry...
Re-using DM without extrapolation (not allowed)
Density Matrix sparsity pattern changed.

InitMesh: MESH =    36 x    36 x    36 =       46656
InitMesh: Mesh cutoff (required, used) =   100.000   119.797 Ry
siesta:    4     -861.9683     -861.9536     -861.9536  0.0024 -5.3497

siesta: iscf   Eharris(eV)      E_KS(eV)   FreeEng(eV)   dDmax  Ef(eV)
siesta:    1     -861.9261     -861.3435     -861.3435  0.0204 -5.2830
siesta:    5     -861.9683     -861.9675     -861.9675  0.0026 -5.3496
siesta:    2     -862.0117     -861.8419     -861.8419  0.0412 -5.3067
siesta:    6     -861.9683     -861.9766     -861.9766  0.0011 -5.3500
siesta:    3     -861.8980     -861.7224     -861.7224  0.0097 -5.2938
siesta:    7     -861.9683     -861.9733     -861.9733  0.0007 -5.3499
siesta:    4     -861.8978     -861.8826     -861.8826  0.0011 -5.2948

siesta: E_KS(eV) =             -861.9681

siesta: E_KS - E_eggbox =      -861.9681

siesta: Atomic forces (eV/Ang):
----------------------------------------
   Tot   -0.001967   -0.001960   -0.001980
----------------------------------------
   Max    0.079921
   Res    0.056458    sqrt( Sum f_i^2 / 3N )
----------------------------------------
   Max    0.079921    constrained

Stress-tensor-Voigt (kbar):       -5.76       -5.76       -5.76        1.09        1.09        1.09
(Free)E + p*V (eV/cell)     -861.3929
Target enthalpy (eV/cell)     -861.9681

siesta: Stress tensor (static) (eV/Ang**3):
        -0.003592    0.000677    0.000677
         0.000677   -0.003592    0.000677
         0.000677    0.000677   -0.003592

siesta: Pressure (static):          5.75567913  kBar

siesta: Stress tensor (total) (eV/Ang**3):
        -0.003592    0.000677    0.000677
         0.000677   -0.003592    0.000677
         0.000677    0.000677   -0.003592

siesta: Pressure (total):          5.75567913  kBar

mulliken: Mulliken Atomic and Orbital Populations:

Species: Si                  
Atom  Qatom  Qorb
               3s      3s      3py     3pz     3px     3py     3pz     3px     
               3Pdxy   3Pdyz   3Pdz2   3Pdxz   3Pdx2-y2
   1  4.001   0.628   0.575   0.211   0.211   0.211   0.544   0.544   0.544
              0.126   0.126   0.077   0.126   0.077
   2  4.000   0.641   0.568   0.216   0.216   0.216   0.539   0.539   0.539
              0.125   0.125   0.076   0.125   0.076
   3  4.000   0.636   0.570   0.213   0.217   0.213   0.541   0.539   0.541
              0.126   0.125   0.076   0.125   0.077
   4  4.000   0.632   0.573   0.214   0.210   0.214   0.542   0.544   0.542
              0.126   0.126   0.077   0.126   0.076
   5  4.000   0.636   0.570   0.217   0.213   0.213   0.539   0.541   0.541
              0.125   0.125   0.076   0.126   0.076
   6  4.000   0.632   0.573   0.210   0.214   0.214   0.544   0.542   0.542
              0.126   0.126   0.077   0.126   0.077
   7  4.000   0.636   0.570   0.213   0.213   0.217   0.541   0.541   0.539
              0.125   0.126   0.076   0.125   0.076
   8  4.000   0.632   0.573   0.214   0.214   0.210   0.542   0.542   0.544
              0.126   0.126   0.077   0.126   0.077

mulliken: Qtot =       32.000

cgvc: No target stress found, assuming hydrostatic MD.TargetPressure.

cgvc: Target stress (kBar)
cgvc:        -0.000       0.000       0.000
cgvc:         0.000      -0.000       0.000
cgvc:         0.000       0.000      -0.000

* Maximum dynamic memory allocated =    79 MB

siesta:                 ==============================
                            Begin CG move =      1
                        ==============================

outcoor: Atomic coordinates (Ang):                          
    0.02456923    0.02457074    0.02457033   1       1  Si
    1.36830759    1.36830824    1.36830541   1       2  Si
    2.73296878    2.73296850    0.01707680   1       3  Si
    4.07687485    4.07687476    1.36192007   1       4  Si
    2.73296702    0.01708162    2.73296779   1       5  Si
    4.07687630    1.36192104    4.07687627   1       6  Si
    0.01708086    2.73296799    2.73296699   1       7  Si
    1.36192224    4.07687647    4.07687585   1       8  Si
 Kpoints in:          108 . Kpoints trimmed:          108

siesta: k-grid: Number of k-points =   108
siesta: k-grid: Cutoff (effective) =    16.406 Ang
siesta: k-grid: Supercell and displacements
siesta: k-grid:    6   0   0      0.500
siesta: k-grid:    0   0   6      0.500
siesta: k-grid:    0   6   0      0.500
Naive supercell factors:     5    5    5

superc: Internal auxiliary supercell:     5 x     5 x     5  =     125
superc: Number of atoms, orbitals, and projectors:   1000  13000  16000

outcell: Unit cell vectors (Ang):
        5.468552   -0.007268   -0.007270
       -0.007268    5.468553   -0.007270
       -0.007270   -0.007270    5.468553

outcell: Cell vector modules (Ang)   :    5.468562    5.468562    5.468562
outcell: Cell angles (23,13,12) (deg):     90.1522     90.1522     90.1522
outcell: Cell volume (Ang**3)        :    163.5366
New_DM. Step:     2
Re-using DM from previous geometry...
Re-using DM without extrapolation (not allowed)
Density Matrix sparsity pattern changed.

InitMesh: MESH =    36 x    36 x    36 =       46656
InitMesh: Mesh cutoff (required, used) =   100.000   119.775 Ry
siesta:    5     -861.8978     -861.8879     -861.8879  0.0007 -5.2946

siesta: iscf   Eharris(eV)      E_KS(eV)   FreeEng(eV)   dDmax  Ef(eV)
siesta:    1     -861.9263     -861.3353     -861.3353  0.0206 -5.2823

siesta: E_KS(eV) =             -861.8940

siesta: Atomic forces (eV/Ang):
----------------------------------------
   Tot    0.003053    0.003049    0.003050
----------------------------------------
   Max    0.491415
   Res    0.354975    sqrt( Sum f_i^2 / 3N )
----------------------------------------
   Max    0.491415    constrained

Stress-tensor-Voigt (kbar):       11.26       11.26       11.26      -10.62      -10.62      -10.62
(Free)E + p*V (eV/cell)     -863.0435
Target enthalpy (eV/cell)     -861.8940

siesta: Stress tensor (static) (eV/Ang**3):
         0.007031   -0.006630   -0.006631
        -0.006630    0.007031   -0.006631
        -0.006631   -0.006631    0.007031

siesta: Pressure (static):        -11.26458459  kBar

siesta: Stress tensor (total) (eV/Ang**3):
         0.007031   -0.006630   -0.006631
        -0.006630    0.007031   -0.006631
        -0.006631   -0.006631    0.007031

siesta: Pressure (total):        -11.26458459  kBar

mulliken: Mulliken Atomic and Orbital Populations:

Species: Si                  
Atom  Qatom  Qorb
               3s      3s      3py     3pz     3px     3py     3pz     3px     
               3Pdxy   3Pdyz   3Pdz2   3Pdxz   3Pdx2-y2
   1  4.000   0.671   0.555   0.246   0.246   0.246   0.512   0.512   0.512
              0.119   0.119   0.071   0.119   0.071
   2  4.001   0.622   0.578   0.219   0.219   0.219   0.538   0.538   0.538
              0.126   0.126   0.077   0.126   0.077
   3  4.000   0.639   0.570   0.232   0.217   0.232   0.526   0.536   0.526
              0.123   0.124   0.076   0.124   0.074
   4  4.000   0.655   0.562   0.232   0.246   0.232   0.524   0.514   0.524
              0.122   0.121   0.072   0.121   0.074
   5  4.000   0.639   0.570   0.217   0.232   0.232   0.536   0.526   0.526
              0.124   0.124   0.074   0.123   0.076
   6  4.000   0.655   0.562   0.246   0.232   0.232   0.514   0.524   0.524
              0.121   0.121   0.074   0.122   0.072
   7  4.000   0.639   0.570   0.232   0.232   0.217   0.526   0.526   0.536
              0.124   0.123   0.074   0.124   0.076
   8  4.000   0.655   0.562   0.232   0.232   0.246   0.524   0.524   0.514
              0.121   0.122   0.074   0.121   0.072

mulliken: Qtot =       32.000

* Maximum dynamic memory allocated =    89 MB

siesta:                 ==============================
                            Begin CG move =      2
                        ==============================

outcoor: Atomic coordinates (Ang):                          
    0.00433086    0.00433100    0.00433087   1       1  Si
    1.36144331    1.36144344    1.36144316   1       2  Si
    2.72222995    2.72222990    0.00299863   1       3  Si
    4.07937228    4.07937229    1.36030506   1       4  Si
    2.72222963    0.00299947    2.72222970   1       5  Si
    4.07937265    1.36030526    4.07937252   1       6  Si
    0.00299945    2.72222972    2.72222948   1       7  Si
    1.36030543    4.07937268    4.07937256   1       8  Si
 Kpoints in:          108 . Kpoints trimmed:          108

siesta: k-grid: Number of k-points =   108
siesta: k-grid: Cutoff (effective) =    16.310 Ang
siesta: k-grid: Supercell and displacements
siesta: k-grid:    0   0   6      0.500
siesta: k-grid:    6   0   0      0.500
siesta: k-grid:    0   6   0      0.500
Naive supercell factors:     5    5    5

superc: Internal auxiliary supercell:     5 x     5 x     5  =     125
superc: Number of atoms, orbitals, and projectors:   1000  13000  16000

outcell: Unit cell vectors (Ang):
        5.436687   -0.001282   -0.001283
       -0.001282    5.436687   -0.001283
       -0.001283   -0.001283    5.436687

outcell: Cell vector modules (Ang)   :    5.436688    5.436688    5.436688
outcell: Cell angles (23,13,12) (deg):     90.0270     90.0270     90.0270
outcell: Cell volume (Ang**3)        :    160.6952
New_DM. Step:     3
Re-using DM from previous geometry...
Re-using DM without extrapolation (not allowed)
Density Matrix sparsity pattern changed.

InitMesh: MESH =    36 x    36 x    36 =       46656
InitMesh: Mesh cutoff (required, used) =   100.000   121.182 Ry
siesta:    2     -862.0105     -861.8433     -861.8433  0.0409 -5.3060

siesta: iscf   Eharris(eV)      E_KS(eV)   FreeEng(eV)   dDmax  Ef(eV)
siesta:    1     -861.9891     -862.4036     -862.4036  0.0159 -5.3479
siesta:    3     -861.8985     -861.7220     -861.7220  0.0097 -5.2932
siesta:    2     -862.0419     -861.9367     -861.9367  0.0304 -5.3458
siesta:    4     -861.8984     -861.8833     -861.8833  0.0011 -5.2941
siesta:    3     -861.9715     -862.0651     -862.0651  0.0068 -5.3434
siesta:    5     -861.8984     -861.8885     -861.8885  0.0007 -5.2940
siesta:    4     -861.9714     -861.9604     -861.9604  0.0009 -5.3430

siesta: E_KS(eV) =             -861.8946

siesta: Atomic forces (eV/Ang):
----------------------------------------
   Tot    0.002236    0.002239    0.002222
----------------------------------------
   Max    0.488075
   Res    0.352478    sqrt( Sum f_i^2 / 3N )
----------------------------------------
   Max    0.488075    constrained

Stress-tensor-Voigt (kbar):       11.55       11.55       11.55      -10.56      -10.56      -10.56
(Free)E + p*V (eV/cell)     -863.0740
Target enthalpy (eV/cell)     -861.8946

siesta: Stress tensor (static) (eV/Ang**3):
         0.007212   -0.006589   -0.006590
        -0.006589    0.007212   -0.006590
        -0.006590   -0.006590    0.007212

siesta: Pressure (static):        -11.55480573  kBar

siesta: Stress tensor (total) (eV/Ang**3):
         0.007212   -0.006589   -0.006590
        -0.006589    0.007212   -0.006590
        -0.006590   -0.006590    0.007212

siesta: Pressure (total):        -11.55480573  kBar

mulliken: Mulliken Atomic and Orbital Populations:

Species: Si                  
Atom  Qatom  Qorb
               3s      3s      3py     3pz     3px     3py     3pz     3px     
               3Pdxy   3Pdyz   3Pdz2   3Pdxz   3Pdx2-y2
   1  4.000   0.671   0.555   0.246   0.246   0.246   0.512   0.512   0.512
              0.119   0.119   0.071   0.119   0.071
   2  4.001   0.623   0.578   0.220   0.220   0.220   0.537   0.537   0.537
              0.126   0.126   0.077   0.126   0.077
   3  4.000   0.639   0.570   0.233   0.217   0.233   0.526   0.536   0.526
              0.122   0.124   0.076   0.124   0.074
   4  4.000   0.655   0.562   0.233   0.246   0.233   0.523   0.514   0.523
              0.122   0.121   0.072   0.121   0.074
   5  4.000   0.639   0.570   0.217   0.233   0.233   0.536   0.526   0.526
              0.124   0.124   0.074   0.122   0.075
   6  4.000   0.655   0.562   0.246   0.233   0.233   0.514   0.523   0.523
              0.121   0.121   0.074   0.122   0.072
   7  4.000   0.639   0.570   0.233   0.233   0.217   0.526   0.526   0.536
              0.124   0.122   0.074   0.124   0.075
   8  4.000   0.655   0.562   0.233   0.233   0.246   0.523   0.523   0.514
              0.121   0.122   0.074   0.121   0.072

mulliken: Qtot =       32.000

* Maximum dynamic memory allocated =    87 MB

siesta:                 ==============================
                            Begin CG move =      2
                        ==============================

outcoor: Atomic coordinates (Ang):                          
    0.00433788    0.00433814    0.00433807   1       1  Si
    1.36147063    1.36147074    1.36147024   1       2  Si
    2.72230501    2.72230496    0.00299993   1       3  Si
    4.07946755    4.07946753    1.36032740   1       4  Si
    2.72230470    0.00300078    2.72230483   1       5  Si
    4.07946780    1.36032757    4.07946780   1       6  Si
    0.00300064    2.72230487    2.72230469   1       7  Si
    1.36032778    4.07946783    4.07946772   1       8  Si
 Kpoints in:          108 . Kpoints trimmed:          108

siesta: k-grid: Number of k-points =   108
siesta: k-grid: Cutoff (effective) =    16.310 Ang
siesta: k-grid: Supercell and displacements
siesta: k-grid:    6   0   0      0.500
siesta: k-grid:    0   0   6      0.500
siesta: k-grid:    0   6   0      0.500
Naive supercell factors:     5    5    5

superc: Internal auxiliary supercell:     5 x     5 x     5  =     125
superc: Number of atoms, orbitals, and projectors:   1000  13000  16000

outcell: Unit cell vectors (Ang):
        5.436831   -0.001288   -0.001288
       -0.001288    5.436831   -0.001288
       -0.001288   -0.001288    5.436831

outcell: Cell vector modules (Ang)   :    5.436832    5.436832    5.436832
outcell: Cell angles (23,13,12) (deg):     90.0271     90.0271     90.0271
outcell: Cell volume (Ang**3)        :    160.7080
New_DM. Step:     3
Re-using DM from previous geometry...
Re-using DM without extrapolation (not allowed)
Density Matrix sparsity pattern changed.

InitMesh: MESH =    36 x    36 x    36 =       46656
InitMesh: Mesh cutoff (required, used) =   100.000   121.176 Ry

siesta: E_KS(eV) =             -861.9630

siesta: Atomic forces (eV/Ang):
----------------------------------------
   Tot   -0.004206   -0.004204   -0.004183
----------------------------------------
   Max    0.031642
   Res    0.030077    sqrt( Sum f_i^2 / 3N )
----------------------------------------
   Max    0.031642    constrained

Stress-tensor-Voigt (kbar):       -1.61       -1.61       -1.61       -0.94       -0.94       -0.94
(Free)E + p*V (eV/cell)     -861.8011
Target enthalpy (eV/cell)     -861.9630

siesta: Stress tensor (static) (eV/Ang**3):
        -0.001007   -0.000590   -0.000590
        -0.000590   -0.001007   -0.000590
        -0.000590   -0.000590   -0.001007

siesta: Pressure (static):          1.61382764  kBar

siesta: Stress tensor (total) (eV/Ang**3):
        -0.001007   -0.000590   -0.000590
        -0.000590   -0.001007   -0.000590
        -0.000590   -0.000590   -0.001007

siesta: Pressure (total):          1.61382764  kBar

mulliken: Mulliken Atomic and Orbital Populations:

Species: Si                  
Atom  Qatom  Qorb
               3s      3s      3py     3pz     3px     3py     3pz     3px     
               3Pdxy   3Pdyz   3Pdz2   3Pdxz   3Pdx2-y2
   1  4.000   0.636   0.571   0.217   0.217   0.217   0.539   0.539   0.539
              0.125   0.125   0.076   0.125   0.076
   2  4.000   0.637   0.570   0.217   0.217   0.217   0.538   0.538   0.538
              0.125   0.125   0.076   0.125   0.076
   3  4.000   0.636   0.570   0.217   0.217   0.217   0.538   0.538   0.538
              0.125   0.125   0.076   0.125   0.076
   4  4.000   0.636   0.571   0.217   0.217   0.217   0.538   0.538   0.538
              0.125   0.125   0.076   0.125   0.076
   5  4.000   0.636   0.570   0.217   0.217   0.217   0.538   0.538   0.538
              0.125   0.125   0.076   0.125   0.076
   6  4.000   0.636   0.571   0.217   0.217   0.217   0.538   0.538   0.538
              0.125   0.125   0.076   0.125   0.076
   7  4.000   0.636   0.570   0.217   0.217   0.217   0.538   0.538   0.538
              0.125   0.125   0.076   0.125   0.076
   8  4.000   0.636   0.571   0.217   0.217   0.217   0.538   0.538   0.538
              0.125   0.125   0.076   0.125   0.076

mulliken: Qtot =       32.000

* Maximum dynamic memory allocated =    90 MB

outcoor: Relaxed atomic coordinates (Ang):                  
    0.00433086    0.00433100    0.00433087   1       1  Si
    1.36144331    1.36144344    1.36144316   1       2  Si
    2.72222995    2.72222990    0.00299863   1       3  Si
    4.07937228    4.07937229    1.36030506   1       4  Si
    2.72222963    0.00299947    2.72222970   1       5  Si
    4.07937265    1.36030526    4.07937252   1       6  Si
    0.00299945    2.72222972    2.72222948   1       7  Si
    1.36030543    4.07937268    4.07937256   1       8  Si

outcell: Unit cell vectors (Ang):
        5.436687   -0.001282   -0.001283
       -0.001282    5.436687   -0.001283
       -0.001283   -0.001283    5.436687

outcell: Cell vector modules (Ang)   :    5.436688    5.436688    5.436688
outcell: Cell angles (23,13,12) (deg):     90.0270     90.0270     90.0270
outcell: Cell volume (Ang**3)        :    160.6952

coxmol: Writing XMOL coordinates into file si.xyz                                                          
Writing WFSX for selected k-points in si.selected.WFSX

writewave: Wave Functions Coefficients

     Number of k-points =        1
        Number of Spins =        1
   Number of basis orbs =      104


                                                                  ******
            k-point =        1    0.000000  0.000000  0.000000
     Spin component =        1
 Num. wavefunctions =       50
Use readwfsx utility to print wavefunction coefficients from WFSX file
Computing bands...

siesta: Band k vectors (Bohr**-1):
  ik           k
   1    0.306162    0.306162    0.306162
   2    0.293915    0.293915    0.293915
   3    0.281669    0.281669    0.281669
   4    0.269422    0.269422    0.269422
   5    0.257176    0.257176    0.257176
   6    0.244929    0.244929    0.244929
   7    0.232683    0.232683    0.232683
   8    0.220436    0.220436    0.220436
   9    0.208190    0.208190    0.208190
  10    0.195944    0.195944    0.195944
  11    0.183697    0.183697    0.183697
  12    0.171451    0.171451    0.171451
  13    0.159204    0.159204    0.159204
  14    0.146958    0.146958    0.146958
  15    0.134711    0.134711    0.134711
  16    0.122465    0.122465    0.122465
  17    0.110218    0.110218    0.110218
  18    0.097972    0.097972    0.097972
  19    0.085725    0.085725    0.085725
  20    0.073479    0.073479    0.073479
  21    0.061232    0.061232    0.061232
  22    0.048986    0.048986    0.048986
  23    0.036739    0.036739    0.036739
  24    0.024493    0.024493    0.024493
  25    0.012246    0.012246    0.012246
  26    0.000000    0.000000    0.000000
  27    0.020411    0.000000    0.000000
  28    0.040822    0.000000    0.000000
  29    0.061232    0.000000    0.000000
  30    0.081643    0.000000    0.000000
  31    0.102054    0.000000    0.000000
  32    0.122465    0.000000    0.000000
  33    0.142876    0.000000    0.000000
  34    0.163286    0.000000    0.000000
  35    0.183697    0.000000    0.000000
  36    0.204108    0.000000    0.000000
  37    0.224519    0.000000    0.000000
  38    0.244929    0.000000    0.000000
  39    0.265340    0.000000    0.000000
  40    0.285751    0.000000    0.000000
  41    0.306162    0.000000    0.000000
  42    0.326573    0.000000    0.000000
  43    0.346983    0.000000    0.000000
  44    0.367394    0.000000    0.000000
  45    0.387805    0.000000    0.000000
  46    0.408216    0.000000    0.000000
  47    0.428627    0.000000    0.000000
  48    0.449037    0.000000    0.000000
  49    0.469448    0.000000    0.000000
  50    0.489859    0.000000    0.000000
  51    0.510270    0.000000    0.000000
  52    0.530680    0.000000    0.000000
  53    0.551091    0.000000    0.000000
  54    0.571502    0.000000    0.000000
  55    0.591913    0.000000    0.000000
  56    0.612324    0.000000    0.000000
  57    0.612324    0.015308    0.015308
  58    0.612324    0.030616    0.030616
  59    0.612324    0.045924    0.045924
  60    0.612324    0.061232    0.061232
  61    0.612324    0.076540    0.076540
  62    0.612324    0.091849    0.091849
  63    0.612324    0.107157    0.107157
  64    0.612324    0.122465    0.122465
  65    0.612324    0.137773    0.137773
  66    0.612324    0.153081    0.153081
  67    0.594829    0.148707    0.148707
  68    0.577334    0.144333    0.144333
  69    0.559839    0.139960    0.139960
  70    0.542344    0.135586    0.135586
  71    0.524849    0.131212    0.131212
  72    0.507354    0.126838    0.126838
  73    0.489859    0.122465    0.122465
  74    0.472364    0.118091    0.118091
  75    0.454869    0.113717    0.113717
  76    0.437374    0.109344    0.109344
  77    0.419879    0.104970    0.104970
  78    0.402384    0.100596    0.100596
  79    0.384889    0.096222    0.096222
  80    0.367394    0.091849    0.091849
  81    0.349899    0.087475    0.087475
  82    0.332404    0.083101    0.083101
  83    0.314909    0.078727    0.078727
  84    0.297414    0.074354    0.074354
  85    0.279919    0.069980    0.069980
  86    0.262424    0.065606    0.065606
  87    0.244929    0.061232    0.061232
  88    0.227434    0.056859    0.056859
  89    0.209940    0.052485    0.052485
  90    0.192445    0.048111    0.048111
  91    0.174950    0.043737    0.043737
  92    0.157455    0.039364    0.039364
  93    0.139960    0.034990    0.034990
  94    0.122465    0.030616    0.030616
  95    0.104970    0.026242    0.026242
  96    0.087475    0.021869    0.021869
  97    0.069980    0.017495    0.017495
  98    0.052485    0.013121    0.013121
  99    0.034990    0.008747    0.008747
 100    0.017495    0.004374    0.004374
 101    0.000000    0.000000    0.000000

siesta: Band energies (eV):
  ik is    eps
   1  1 -15.32 -15.32 -15.32 -15.31 -12.70 -12.69 -12.69 -12.69  -6.90  -6.90
         -6.90  -6.90  -6.90  -6.89  -6.89  -6.89  -4.21  -4.21  -4.21  -4.21
         -2.23  -2.23  -2.23  -2.22  -2.22  -2.21  -2.21  -2.21   3.17   3.18
          3.18   3.18   5.46   5.46   5.46   5.46   5.46   5.47   5.47   5.47
          5.74   5.76   5.76   5.76   6.00   6.00   6.00   6.00   6.00   6.00
          6.01   6.01   8.34   8.34   8.34   8.38  16.55  16.55  16.55  16.57
         17.61  17.61  17.62  17.62  17.62  17.63  17.63  17.63  19.48  19.48
         19.48  19.49  19.49  19.51  19.51  19.51  20.86  20.86  20.86  20.92
         29.75  29.75  29.75  29.77  29.77  29.82  29.82  29.82  69.23  69.23
         69.23  69.32  77.24  77.25  77.25  77.36  77.36  77.36  77.45  77.45
        115.07 115.14 115.14 115.15
   2  1 -15.33 -15.32 -15.32 -15.32 -12.69 -12.69 -12.69 -12.67  -6.94  -6.94
         -6.94  -6.90  -6.90  -6.90  -6.89  -6.89  -4.21  -4.16  -4.16  -4.16
         -2.22  -2.22  -2.22  -2.21  -2.21  -2.21  -2.21  -2.21   3.17   3.17
          3.17   3.18   5.13   5.13   5.13   5.22   5.22   5.45   5.45   5.45
          5.69   5.85   5.85   5.85   6.02   6.02   6.02   6.25   6.25   6.30
          6.30   6.30   8.35   8.35   8.35   8.42  16.52  16.54  16.54  16.54
         17.53  17.53  17.58  17.58  17.58  17.60  17.60  17.60  19.46  19.46
         19.46  19.50  19.50  19.50  19.54  19.54  20.56  20.56  20.56  21.01
         29.68  29.68  29.68  29.79  29.79  29.81  29.81  29.82  68.50  69.08
         69.08  69.08  74.92  74.92  74.92  75.75  75.77  75.77  77.29  77.29
        112.32 112.32 112.32 113.92
   3  1 -15.40 -15.31 -15.31 -15.31 -12.67 -12.67 -12.67 -12.58  -7.06  -7.06
         -7.06  -6.93  -6.93  -6.93  -6.89  -6.89  -4.20  -4.05  -4.05  -4.05
         -2.24  -2.24  -2.24  -2.20  -2.20  -2.15  -2.15  -2.15   3.13   3.13
          3.13   3.17   4.67   4.67   4.67   4.84   4.84   5.42   5.42   5.42
          5.53   5.91   5.91   5.91   6.08   6.08   6.08   6.68   6.68   6.82
          6.82   6.82   8.40   8.40   8.40   8.53  16.40  16.49  16.49  16.49
         17.31  17.31  17.43  17.43  17.43  17.56  17.56  17.56  19.38  19.38
         19.38  19.45  19.45  19.45  19.69  19.69  19.85  19.85  19.85  21.24
         29.47  29.47  29.47  29.83  29.83  29.83  29.84  29.84  66.02  66.53
         66.53  66.53  71.56  71.56  71.56  71.89  71.91  71.91  76.82  76.82
        104.54 104.54 104.54 110.90
   4  1 -15.49 -15.30 -15.30 -15.30 -12.64 -12.64 -12.64 -12.43  -7.24  -7.24
         -7.24  -6.99  -6.98  -6.98  -6.87  -6.87  -4.18  -3.88  -3.88  -3.88
         -2.28  -2.28  -2.28  -2.19  -2.19  -2.05  -2.05  -2.05   3.02   3.02
          3.02   3.15   4.30   4.30   4.30   4.45   4.45   5.32   5.38   5.38
          5.38   6.00   6.00   6.00   6.15   6.15   6.15   7.14   7.14   7.36
          7.36   7.36   8.49   8.49   8.49   8.67  16.25  16.35  16.35  16.35
         17.00  17.00  17.19  17.19  17.19  17.51  17.51  17.51  18.91  18.91
         18.91  19.27  19.27  19.27  19.54  19.54  19.54  19.88  19.88  21.59
         29.13  29.13  29.13  29.93  29.93  29.93  29.93  29.93  60.18  60.18
         60.18  62.17  67.20  67.21  67.21  71.42  71.42  71.43  76.06  76.06
         95.25  95.25  95.25 107.18
   5  1 -15.62 -15.29 -15.29 -15.29 -12.60 -12.60 -12.60 -12.24  -7.45  -7.45
         -7.45  -7.05  -7.05  -7.05  -6.85  -6.85  -4.16  -3.70  -3.70  -3.70
         -2.30  -2.30  -2.30  -2.17  -2.17  -1.91  -1.91  -1.91   2.78   2.78
          2.78   3.13   4.07   4.07   4.08   4.08   4.08   5.08   5.34   5.34
          5.34   6.11   6.11   6.11   6.25   6.25   6.25   7.61   7.61   7.85
          7.85   7.85   8.69   8.69   8.69   8.81  16.08  16.08  16.08  16.12
         16.63  16.63  16.87  16.87  16.87  17.47  17.47  17.47  18.29  18.29
         18.29  19.10  19.10  19.10  19.53  19.53  19.53  20.09  20.09  22.01
         28.66  28.66  28.66  30.05  30.05  30.14  30.14  30.14  53.64  53.64
         53.64  57.51  62.92  62.92  62.92  71.76  71.76  71.76  75.05  75.05
         87.86  87.86  87.86 103.61
   6  1 -15.76 -15.27 -15.27 -15.27 -12.55 -12.55 -12.55 -12.01  -7.69  -7.69
         -7.69  -7.14  -7.14  -7.14  -6.82  -6.82  -4.13  -3.56  -3.56  -3.56
         -2.26  -2.26  -2.26  -2.15  -2.15  -1.74  -1.74  -1.74   2.41   2.41
          2.41   3.08   3.70   3.70   4.00   4.00   4.00   4.84   5.30   5.30
          5.30   6.24   6.24   6.24   6.35   6.35   6.35   8.10   8.10   8.18
          8.18   8.18   8.90   9.06   9.06   9.06  15.69  15.69  15.69  16.04
         16.23  16.23  16.50  16.50  16.51  17.39  17.39  17.39  17.97  17.97
         17.97  18.89  18.89  18.89  19.55  19.55  19.55  20.28  20.28  22.46
         28.08  28.08  28.08  30.20  30.20  30.45  30.45  30.45  47.82  47.82
         47.82  52.68  59.60  59.61  59.61  71.76  71.76  71.76  73.87  73.87
         83.41  83.41  83.41 100.47
   7  1 -15.90 -15.24 -15.24 -15.24 -12.49 -12.49 -12.49 -11.75  -7.94  -7.94
         -7.94  -7.23  -7.23  -7.23  -6.79  -6.79  -4.09  -3.49  -3.49  -3.49
         -2.13  -2.13  -2.13  -2.13  -2.13  -1.54  -1.54  -1.54   1.97   1.97
          1.97   2.99   3.36   3.36   4.02   4.02   4.02   4.64   5.27   5.27
          5.27   6.38   6.38   6.38   6.46   6.46   6.46   8.37   8.37   8.37
          8.58   8.58   8.92   9.60   9.60   9.60  15.26  15.26  15.26  15.81
         15.81  16.06  16.10  16.10  16.10  17.22  17.22  17.22  17.93  17.93
         17.93  18.64  18.64  18.64  19.60  19.60  19.60  20.46  20.46  22.93
         27.43  27.43  27.43  30.36  30.36  30.85  30.85  30.85  42.98  42.98
         42.98  48.20  57.34  57.34  57.34  71.11  71.11  71.11  72.62  72.62
         81.48  81.49  81.49  97.66
   8  1 -16.05 -15.21 -15.21 -15.21 -12.42 -12.42 -12.42 -11.47  -8.18  -8.18
         -8.18  -7.33  -7.33  -7.33  -6.75  -6.75  -4.05  -3.50  -3.50  -3.50
         -2.11  -2.11  -1.91  -1.91  -1.91  -1.31  -1.31  -1.31   1.50   1.50
          1.50   2.86   3.04   3.04   4.09   4.09   4.09   4.50   5.24   5.24
          5.24   6.53   6.53   6.53   6.58   6.58   6.58   8.52   8.52   8.52
          8.85   9.05   9.05  10.19  10.19  10.19  14.84  14.84  14.84  15.40
         15.40  15.68  15.68  15.68  16.16  17.04  17.04  17.04  18.02  18.02
         18.02  18.35  18.35  18.35  19.70  19.70  19.70  20.61  20.61  23.41
         26.74  26.74  26.74  30.54  30.54  31.30  31.30  31.30  39.11  39.11
         39.11  44.36  55.98  55.98  55.98  70.03  70.03  70.03  71.41  71.41
         81.05  81.05  81.05  94.94
   9  1 -16.20 -15.18 -15.18 -15.18 -12.35 -12.35 -12.35 -11.17  -8.42  -8.42
         -8.42  -7.44  -7.44  -7.44  -6.71  -6.71  -4.00  -3.58  -3.58  -3.58
         -2.08  -2.08  -1.61  -1.61  -1.61  -1.05  -1.05  -1.05   1.02   1.02
          1.02   2.67   2.74   2.74   4.18   4.18   4.18   4.43   5.22   5.22
          5.22   6.67   6.67   6.67   6.69   6.69   6.69   8.67   8.67   8.67
          8.70   9.49   9.49  10.80  10.80  10.80  14.43  14.43  14.43  15.02
         15.02  15.25  15.25  15.25  16.32  16.88  16.88  16.88  18.02  18.02
         18.02  18.14  18.14  18.14  19.84  19.84  19.84  20.75  20.75  23.91
         26.02  26.02  26.02  30.74  30.74  31.76  31.76  31.76  36.08  36.08
         36.09  41.26  55.34  55.34  55.34  68.80  68.80  68.81  70.36  70.36
         81.14  81.14  81.14  92.13
  10  1 -16.35 -15.14 -15.14 -15.14 -12.28 -12.28 -12.28 -10.85  -8.65  -8.65
         -8.65  -7.54  -7.54  -7.54  -6.66  -6.66  -3.94  -3.68  -3.68  -3.68
         -2.07  -2.07  -1.27  -1.27  -1.27  -0.77  -0.77  -0.77   0.54   0.54
          0.54   2.43   2.48   2.48   4.28   4.28   4.28   4.42   5.21   5.21
          5.21   6.80   6.80   6.80   6.81   6.81   6.81   8.46   8.83   8.83
          8.83   9.86   9.86  11.39  11.39  11.39  14.04  14.04  14.04  14.72
         14.72  14.83  14.83  14.83  16.52  16.77  16.77  16.77  17.66  17.66
         17.66  18.27  18.27  18.27  20.02  20.02  20.02  20.86  20.86  24.42
         25.31  25.31  25.31  30.95  30.95  31.99  31.99  31.99  33.95  33.95
         33.95  38.92  55.25  55.25  55.25  67.47  67.47  67.47  69.59  69.59
         81.24  81.24  81.24  89.07
  11  1 -16.50 -15.09 -15.09 -15.09 -12.21 -12.21 -12.21 -10.52  -8.86  -8.86
         -8.86  -7.65  -7.65  -7.65  -6.60  -6.60  -3.88  -3.81  -3.81  -3.81
         -2.06  -2.06  -0.90  -0.90  -0.90  -0.48  -0.48  -0.48   0.06   0.06
          0.06   2.15   2.25   2.25   4.39   4.39   4.39   4.46   5.21   5.21
          5.21   6.91   6.91   6.91   6.92   6.92   6.92   8.17   9.02   9.02
          9.02  10.13  10.13  11.96  11.97  11.97  13.65  13.65  13.65  14.41
         14.41  14.41  14.53  14.53  16.70  16.70  16.70  16.72  17.29  17.29
         17.29  18.40  18.40  18.40  20.25  20.25  20.25  20.95  20.95  24.61
         24.61  24.61  24.91  31.06  31.06  31.06  31.19  31.19  33.42  33.42
         33.42  37.31  55.56  55.56  55.56  65.86  65.86  65.86  69.19  69.19
         81.12  81.12  81.12  85.69
  12  1 -16.63 -15.03 -15.03 -15.03 -12.15 -12.15 -12.15 -10.18  -9.05  -9.05
         -9.05  -7.76  -7.76  -7.76  -6.54  -6.54  -3.94  -3.94  -3.94  -3.81
         -2.07  -2.07  -0.58  -0.58  -0.58  -0.34  -0.34  -0.34  -0.16  -0.16
         -0.16   1.86   2.06   2.06   4.50   4.50   4.50   4.53   5.22   5.22
          5.22   7.01   7.01   7.01   7.01   7.01   7.01   7.83   9.26   9.26
          9.26  10.25  10.25  12.46  12.46  12.46  13.30  13.30  13.30  13.99
         13.99  13.99  14.50  14.50  16.67  16.67  16.67  16.89  16.90  16.90
         16.90  18.51  18.51  18.51  20.52  20.52  20.52  21.02  21.02  23.94
         23.94  23.94  25.30  29.62  29.62  29.62  31.46  31.46  33.69  33.69
         33.69  36.44  56.17  56.17  56.17  63.77  63.77  63.77  69.26  69.26
         80.72  80.72  80.72  82.02
  13  1 -16.77 -14.97 -14.97 -14.97 -12.11 -12.11 -12.11  -9.83  -9.20  -9.20
         -9.20  -7.86  -7.86  -7.86  -6.47  -6.47  -4.07  -4.07  -4.07  -3.73
         -2.09  -2.09  -0.92  -0.92  -0.92  -0.07  -0.07  -0.07   0.17   0.17
          0.17   1.55   1.90   1.90   4.62   4.62   4.62   4.62   5.23   5.23
          5.23   7.09   7.09   7.09   7.10   7.10   7.10   7.46   9.54   9.54
          9.54  10.20  10.20  12.56  12.56  12.56  13.31  13.31  13.31  13.57
         13.57  13.57  14.68  14.68  16.52  16.52  16.52  16.69  16.69  16.69
         17.04  18.59  18.59  18.59  20.81  20.81  20.81  21.06  21.06  23.28
         23.28  23.28  25.47  28.33  28.33  28.34  31.78  31.78  33.93  33.93
         33.93  36.30  56.99  57.00  57.00  61.08  61.08  61.08  69.89  69.89
         78.16  80.05  80.05  80.05
  14  1 -16.89 -14.90 -14.90 -14.90 -12.08 -12.08 -12.08  -9.47  -9.32  -9.32
         -9.32  -7.95  -7.95  -7.95  -6.40  -6.40  -4.19  -4.19  -4.19  -3.65
         -2.13  -2.13  -1.37  -1.37  -1.37   0.34   0.34   0.34   0.52   0.52
          0.52   1.23   1.79   1.79   4.71   4.72   4.72   4.72   5.26   5.26
          5.26   7.08   7.14   7.14   7.14   7.18   7.18   7.18   9.87   9.87
          9.87   9.99   9.99  12.21  12.21  12.21  13.14  13.14  13.14  13.74
         13.74  13.74  15.01  15.01  16.16  16.16  16.16  16.74  16.74  16.74
         17.17  18.65  18.65  18.65  21.09  21.09  21.11  21.11  21.11  22.66
         22.66  22.66  25.34  27.25  27.25  27.25  32.14  32.14  34.02  34.02
         34.02  36.83  57.85  57.85  57.85  57.97  57.97  57.97  71.18  71.18
         74.35  79.18  79.18  79.19
  15  1 -17.01 -14.82 -14.82 -14.82 -12.09 -12.09 -12.09  -9.39  -9.39  -9.39
         -9.10  -8.05  -8.05  -8.05  -6.33  -6.33  -4.31  -4.31  -4.31  -3.57
         -2.19  -2.19  -1.81  -1.81  -1.81   0.76   0.76   0.76   0.88   0.88
          0.88   0.90   1.72   1.72   4.79   4.82   4.82   4.82   5.29   5.29
          5.29   6.72   7.17   7.17   7.17   7.24   7.24   7.24   9.68   9.68
         10.25  10.25  10.25  11.78  11.78  11.78  12.69  12.69  12.69  14.20
         14.20  14.20  15.46  15.46  15.84  15.84  15.84  16.82  16.82  16.82
         17.30  18.69  18.69  18.69  21.11  21.11  21.41  21.41  21.41  22.06
         22.06  22.06  24.90  26.33  26.33  26.33  32.55  32.55  33.92  33.92
         33.92  37.79  54.33  54.33  54.33  59.04  59.05  59.05  70.89  73.22
         73.22  78.18  78.18  78.18
  16  1 -17.11 -14.74 -14.74 -14.74 -12.13 -12.13 -12.13  -9.42  -9.42  -9.42
         -8.72  -8.13  -8.13  -8.13  -6.25  -6.25  -4.43  -4.43  -4.43  -3.48
         -2.26  -2.26  -2.24  -2.24  -2.24   0.56   1.19   1.19   1.19   1.25
          1.25   1.25   1.70   1.70   4.84   4.92   4.92   4.92   5.33   5.33
          5.33   6.41   7.19   7.19   7.19   7.28   7.28   7.28   9.32   9.32
         10.63  10.63  10.63  11.39  11.39  11.39  12.22  12.22  12.22  14.65
         14.65  14.65  15.57  15.57  15.57  15.97  15.97  16.91  16.91  16.91
         17.44  18.71  18.71  18.71  21.10  21.10  21.49  21.49  21.49  21.68
         21.68  21.68  24.23  25.55  25.55  25.55  33.01  33.01  33.67  33.67
         33.67  38.83  50.84  50.85  50.85  60.18  60.18  60.18  68.22  76.13
         76.13  77.10  77.10  77.10
  17  1 -17.21 -14.65 -14.65 -14.65 -12.20 -12.20 -12.20  -9.40  -9.40  -9.40
         -8.34  -8.21  -8.21  -8.21  -6.17  -6.17  -4.53  -4.53  -4.53  -3.39
         -2.65  -2.65  -2.65  -2.35  -2.35   0.22   1.62   1.62   1.62   1.63
          1.63   1.63   1.71   1.71   4.80   5.01   5.01   5.01   5.37   5.37
          5.37   6.19   7.19   7.19   7.19   7.31   7.31   7.31   8.93   8.93
         10.67  10.67  10.67  11.37  11.37  11.37  11.73  11.73  11.73  15.06
         15.06  15.06  15.37  15.37  15.37  16.51  16.51  17.00  17.00  17.00
         17.59  18.71  18.71  18.71  20.96  20.96  20.96  21.09  21.09  21.89
         21.89  21.89  23.42  24.90  24.90  24.90  33.33  33.33  33.33  33.48
         33.48  39.53  47.68  47.68  47.68  61.34  61.35  61.35  66.77  75.99
         75.99  75.99  80.05  80.05
  18  1 -17.30 -14.55 -14.55 -14.55 -12.30 -12.30 -12.30  -9.33  -9.33  -9.33
         -8.28  -8.28  -8.28  -7.96  -6.09  -6.09  -4.62  -4.62  -4.62  -3.30
         -3.05  -3.05  -3.05  -2.46  -2.46  -0.12   1.76   1.76   2.01   2.01
          2.02   2.04   2.04   2.04   4.68   5.09   5.09   5.09   5.42   5.42
          5.42   6.09   7.19   7.19   7.19   7.33   7.33   7.33   8.54   8.54
         10.29  10.29  10.29  11.22  11.22  11.22  11.79  11.79  11.79  15.22
         15.22  15.22  15.42  15.42  15.42  17.04  17.04  17.10  17.10  17.10
         17.74  18.71  18.71  18.71  20.46  20.46  20.46  21.05  21.05  22.00
         22.00  22.00  22.54  24.35  24.35  24.35  33.00  33.00  33.00  33.96
         33.96  39.57  45.00  45.00  45.00  62.51  62.51  62.51  66.90  74.87
         74.87  74.88  85.07  85.07
  19  1 -17.37 -14.44 -14.44 -14.44 -12.42 -12.42 -12.42  -9.24  -9.24  -9.24
         -8.35  -8.35  -8.35  -7.57  -6.00  -6.00  -4.71  -4.71  -4.71  -3.42
         -3.42  -3.42  -3.21  -2.57  -2.57  -0.46   1.83   1.83   2.40   2.40
          2.40   2.46   2.46   2.46   4.50   5.18   5.18   5.18   5.48   5.48
          5.48   6.09   7.17   7.17   7.17   7.33   7.33   7.33   8.16   8.16
          9.85   9.85   9.85  10.69  10.69  10.69  12.29  12.29  12.29  15.13
         15.13  15.13  15.72  15.72  15.72  17.19  17.19  17.19  17.55  17.55
         17.86  18.70  18.70  18.70  19.99  19.99  19.99  21.00  21.00  21.68
         21.99  21.99  21.99  23.88  23.88  23.88  32.79  32.79  32.79  34.42
         34.42  38.95  42.83  42.83  42.83  63.64  63.64  63.64  68.64  73.76
         73.76  73.77  91.24  91.24
  20  1 -17.44 -14.33 -14.33 -14.33 -12.56 -12.56 -12.56  -9.12  -9.12  -9.12
         -8.40  -8.40  -8.40  -7.20  -5.92  -5.92  -4.78  -4.78  -4.78  -3.76
         -3.76  -3.76  -3.13  -2.68  -2.68  -0.80   1.93   1.93   2.79   2.79
          2.79   2.86   2.86   2.86   4.32   5.27   5.27   5.27   5.54   5.54
          5.54   6.15   7.16   7.16   7.16   7.32   7.32   7.32   7.79   7.79
          9.40   9.40   9.40  10.16  10.16  10.16  12.81  12.81  12.81  15.10
         15.10  15.10  15.95  15.95  15.95  17.27  17.27  17.27  17.88  18.02
         18.02  18.68  18.68  18.68  19.55  19.55  19.56  20.93  20.93  20.94
         21.87  21.87  21.87  23.47  23.47  23.47  32.80  32.80  32.80  34.83
         34.83  37.97  41.12  41.12  41.12  64.71  64.71  64.71  71.83  72.67
         72.67  72.67  98.48  98.48
  21  1 -17.50 -14.21 -14.21 -14.21 -12.71 -12.71 -12.71  -9.00  -9.00  -9.00
         -8.45  -8.45  -8.45  -6.83  -5.85  -5.85  -4.84  -4.84  -4.84  -4.07
         -4.07  -4.07  -3.07  -2.79  -2.79  -1.13   2.04   2.04   3.16   3.16
          3.16   3.25   3.25   3.25   4.20   5.36   5.36   5.36   5.61   5.61
          5.61   6.24   7.14   7.14   7.14   7.31   7.31   7.31   7.46   7.46
          8.95   8.95   8.95   9.63   9.63   9.63  13.33  13.33  13.33  15.11
         15.11  15.11  16.12  16.12  16.12  17.31  17.31  17.31  17.71  18.46
         18.46  18.64  18.64  18.64  19.16  19.16  19.16  20.43  20.85  20.85
         21.69  21.69  21.69  23.11  23.11  23.11  33.04  33.04  33.04  35.19
         35.19  36.95  39.78  39.78  39.78  65.69  65.69  65.69  71.62  71.62
         71.62  76.39 106.52 106.52
  22  1 -17.54 -14.08 -14.08 -14.08 -12.87 -12.87 -12.87  -8.87  -8.87  -8.87
         -8.49  -8.49  -8.49  -6.48  -5.78  -5.78  -4.89  -4.89  -4.89  -4.35
         -4.35  -4.35  -3.02  -2.88  -2.88  -1.44   2.15   2.15   3.51   3.51
          3.51   3.60   3.60   3.60   4.19   5.47   5.47   5.47   5.69   5.69
          5.69   6.33   7.13   7.13   7.13   7.16   7.16   7.30   7.30   7.30
          8.52   8.52   8.52   9.13   9.13   9.13  13.85  13.85  13.85  15.15
         15.15  15.15  16.24  16.24  16.24  17.30  17.30  17.30  17.34  18.55
         18.55  18.55  18.82  18.82  18.82  18.85  18.85  20.20  20.74  20.74
         21.54  21.54  21.54  22.79  22.79  22.79  33.49  33.49  33.49  35.49
         35.49  36.15  38.72  38.72  38.72  66.55  66.55  66.55  70.63  70.63
         70.63  82.68 114.87 114.87
  23  1 -17.57 -13.95 -13.95 -13.95 -13.03 -13.03 -13.03  -8.75  -8.75  -8.75
         -8.52  -8.52  -8.52  -6.16  -5.72  -5.72  -4.93  -4.93  -4.93  -4.58
         -4.58  -4.58  -3.00  -2.97  -2.97  -1.70   2.26   2.26   3.83   3.83
          3.83   3.89   3.89   3.89   4.31   5.60   5.60   5.60   5.77   5.77
          5.77   6.42   6.91   6.91   7.12   7.12   7.12   7.31   7.31   7.31
          8.12   8.12   8.12   8.65   8.65   8.65  14.35  14.35  14.35  15.21
         15.21  15.21  16.31  16.32  16.32  16.88  17.22  17.22  17.22  18.42
         18.42  18.42  18.53  18.53  18.53  19.20  19.20  20.17  20.62  20.62
         21.46  21.46  21.46  22.50  22.50  22.50  34.07  34.07  34.07  35.71
         35.71  35.72  37.88  37.88  37.88  67.26  67.26  67.26  69.75  69.75
         69.76  91.79 122.81 122.81
  24  1 -17.59 -13.81 -13.81 -13.81 -13.19 -13.19 -13.19  -8.65  -8.65  -8.65
         -8.54  -8.54  -8.54  -5.89  -5.67  -5.67  -4.95  -4.95  -4.95  -4.76
         -4.76  -4.76  -3.03  -3.03  -3.02  -1.90   2.35   2.35   4.08   4.08
          4.08   4.12   4.12   4.12   4.57   5.75   5.75   5.75   5.86   5.86
          5.86   6.50   6.72   6.72   7.12   7.12   7.12   7.35   7.35   7.35
          7.75   7.75   7.75   8.23   8.23   8.23  14.81  14.81  14.81  15.27
         15.27  15.27  16.37  16.37  16.37  16.47  17.05  17.05  17.05  18.28
         18.28  18.28  18.30  18.30  18.30  19.50  19.50  20.21  20.48  20.48
         21.49  21.49  21.49  22.23  22.23  22.23  34.72  34.72  34.72  35.70
         35.87  35.87  37.19  37.19  37.19  67.78  67.78  67.78  69.06  69.06
         69.06 105.66 129.42 129.42
  25  1 -17.60 -13.66 -13.66 -13.66 -13.35 -13.35 -13.35  -8.58  -8.58  -8.58
         -8.56  -8.56  -8.56  -5.71  -5.64  -5.64  -4.96  -4.96  -4.96  -4.88
         -4.88  -4.88  -3.07  -3.07  -3.05  -2.01   2.41   2.41   4.24   4.24
          4.24   4.25   4.25   4.25   4.89   5.90   5.90   5.90   5.93   5.93
          5.93   6.57   6.61   6.61   7.15   7.15   7.15   7.43   7.43   7.43
          7.44   7.44   7.44   7.87   7.87   7.87  15.18  15.18  15.18  15.32
         15.32  15.32  16.20  16.44  16.44  16.44  16.80  16.80  16.80  18.16
         18.16  18.16  18.19  18.19  18.19  19.75  19.75  20.25  20.32  20.32
         21.61  21.61  21.61  21.99  21.99  21.99  35.36  35.36  35.36  35.94
         35.97  35.97  36.57  36.57  36.57  68.11  68.11  68.11  68.60  68.60
         68.60 124.12 133.84 133.84
  26  1 -17.60 -13.51 -13.51 -13.51 -13.50 -13.50 -13.50  -8.56  -8.56  -8.56
         -8.56  -8.56  -8.56  -5.65  -5.63  -5.63  -4.94  -4.94  -4.94  -4.94
         -4.94  -4.94  -3.09  -3.09  -3.06  -2.05   2.43   2.43   4.30   4.30
          4.30   4.30   4.30   4.30   5.04   5.96   5.96   5.96   5.96   5.96
          5.96   6.57   6.57   6.59   7.23   7.23   7.23   7.25   7.25   7.25
          7.59   7.59   7.59   7.61   7.61   7.61  15.34  15.34  15.34  15.34
         15.34  15.34  16.10  16.56  16.56  16.56  16.58  16.58  16.58  18.11
         18.11  18.11  18.16  18.16  18.16  19.88  19.88  20.22  20.22  20.26
         21.77  21.77  21.77  21.79  21.79  21.79  35.96  35.96  35.96  35.99
         35.99  35.99  36.00  36.00  36.09  68.22  68.22  68.22  68.44  68.44
         68.45 134.93 135.40 135.40
  27  1 -17.60 -13.76 -13.51 -13.51 -13.50 -13.50 -13.25  -8.58  -8.58  -8.57
         -8.57  -8.56  -8.56  -5.68  -5.66  -5.65  -5.00  -4.92  -4.91  -4.91
         -4.91  -4.87  -3.09  -3.06  -3.04  -2.02   2.38   2.43   4.23   4.23
          4.26   4.26   4.26   4.26   4.89   5.86   5.86   5.87   5.87   6.03
          6.03   6.57   6.58   6.62   7.00   7.25   7.30   7.30   7.32   7.32
          7.46   7.67   7.67   7.68   7.68   7.97  15.24  15.24  15.26  15.26
         15.27  15.27  16.19  16.24  16.64  16.64  16.66  16.66  16.87  18.11
         18.11  18.16  18.16  18.22  18.27  19.72  19.85  20.18  20.21  20.44
         21.50  21.78  21.78  21.79  21.79  22.15  35.01  35.75  35.80  35.92
         35.92  35.95  35.95  36.33  37.04  68.15  68.30  68.30  68.36  68.52
         68.52 128.66 131.42 131.70
  28  1 -17.59 -14.01 -13.51 -13.51 -13.50 -13.49 -12.98  -8.62  -8.62  -8.62
         -8.62  -8.54  -8.54  -5.77  -5.73  -5.72  -5.04  -4.84  -4.84  -4.83
         -4.83  -4.79  -3.13  -2.98  -2.96  -1.92   2.26   2.45   4.05   4.05
          4.14   4.14   4.15   4.15   4.58   5.66   5.66   5.67   5.67   6.22
          6.22   6.58   6.59   6.74   6.75   6.90   7.38   7.38   7.39   7.39
          7.64   7.94   7.94   7.94   7.94   8.36  14.98  14.99  15.08  15.08
         15.09  15.09  15.89  16.45  16.84  16.84  16.85  16.85  17.13  18.10
         18.10  18.15  18.15  18.52  18.56  19.48  19.75  20.05  20.08  20.78
         21.34  21.79  21.79  21.81  21.81  22.58  34.12  35.03  35.09  35.84
         35.84  35.88  35.88  37.26  38.20  67.92  68.14  68.51  68.51  68.73
         68.73 114.85 122.30 122.52
  29  1 -17.58 -14.25 -13.50 -13.50 -13.49 -13.49 -12.71  -8.69  -8.69  -8.69
         -8.69  -8.52  -8.52  -5.93  -5.83  -5.82  -5.07  -4.71  -4.71  -4.71
         -4.71  -4.69  -3.19  -2.85  -2.84  -1.78   2.08   2.48   3.80   3.80
          3.94   3.94   3.95   3.95   4.27   5.47   5.47   5.48   5.48   6.45
          6.48   6.48   6.58   6.60   6.61   6.94   7.42   7.42   7.42   7.42
          7.79   8.34   8.34   8.34   8.34   8.75  14.63  14.64  14.86  14.86
         14.86  14.86  15.53  16.86  17.09  17.09  17.10  17.10  17.32  18.08
         18.08  18.12  18.12  18.93  18.97  19.25  19.59  19.83  19.86  21.12
         21.33  21.82  21.82  21.84  21.84  23.05  33.31  33.96  34.01  35.78
         35.79  35.84  35.84  38.99  39.49  67.57  67.78  68.85  68.85  69.06
         69.06 101.47 111.45 111.60
  30  1 -17.55 -14.48 -13.49 -13.49 -13.48 -13.48 -12.44  -8.77  -8.77  -8.77
         -8.77  -8.49  -8.49  -6.13  -5.95  -5.95  -5.09  -4.59  -4.54  -4.54
         -4.54  -4.54  -3.26  -2.69  -2.67  -1.61   1.86   2.51   3.53   3.53
          3.65   3.65   3.65   3.65   4.06   5.34   5.34   5.35   5.35   6.16
          6.26   6.63   6.65   6.78   6.78   7.19   7.44   7.44   7.44   7.44
          7.91   8.80   8.80   8.80   8.80   9.16  14.23  14.25  14.62  14.62
         14.62  14.62  15.16  17.35  17.35  17.37  17.37  17.40  17.42  18.04
         18.04  18.08  18.08  19.02  19.36  19.42  19.45  19.51  19.53  21.46
         21.51  21.86  21.86  21.88  21.88  23.56  32.57  32.70  32.74  35.89
         35.89  35.96  35.96  40.91  41.78  67.14  67.34  69.28  69.28  69.49
         69.49  90.70 101.55 101.64
  31  1 -17.51 -14.71 -13.48 -13.48 -13.46 -13.46 -12.16  -8.87  -8.87  -8.87
         -8.87  -8.45  -8.45  -6.36  -6.10  -6.09  -5.10  -4.46  -4.33  -4.33
         -4.33  -4.33  -3.36  -2.49  -2.48  -1.44   1.64   2.56   3.23   3.23
          3.29   3.29   3.30   3.30   3.99   5.26   5.26   5.26   5.26   5.84
          5.96   6.69   6.70   7.09   7.09   7.46   7.46   7.46   7.46   7.48
          7.98   9.28   9.28   9.29   9.29   9.59  13.83  13.85  14.38  14.38
         14.39  14.39  14.78  17.44  17.62  17.62  17.63  17.63  17.96  17.96
         18.00  18.00  18.01  18.80  19.08  19.08  19.11  19.94  19.97  21.78
         21.87  21.90  21.91  21.93  21.93  24.09  31.42  31.45  31.89  36.27
[...]
         10.42  11.01  11.07  11.33  11.47  11.77  12.06  12.45  13.05  13.35
         14.12  14.33  14.56  14.66  14.72  15.75  16.22  16.46  16.50  17.21
         17.73  17.88  18.73  18.97  19.50  20.86  21.92  22.34  23.34  23.47
         23.90  24.09  24.86  25.25  26.49  26.65  33.13  37.92  39.16  41.45
         44.47  54.78  54.84  56.92  58.69  64.29  65.74  67.93  68.03  69.32
         73.48  86.65  89.40  90.63
  93  1 -16.59 -15.91 -14.74 -14.38 -12.52 -12.12 -10.68  -9.97  -9.69  -9.65
         -8.59  -8.34  -8.13  -7.87  -7.62  -6.67  -3.53  -3.51  -3.04  -2.40
         -2.16  -1.87  -1.87  -1.06  -1.04  -0.85  -0.65  -0.53   0.45   0.48
          1.12   1.90   1.93   1.97   2.54   3.48   3.92   3.97   4.60   5.57
          5.68   5.69   7.51   7.83   8.20   8.49   8.92   9.26   9.50  10.18
         10.42  11.02  11.07  11.33  11.48  11.77  12.05  12.46  13.04  13.36
         14.11  14.35  14.56  14.67  14.72  15.74  16.23  16.45  16.50  17.19
         17.73  17.88  18.74  18.96  19.49  20.84  21.92  22.35  23.33  23.48
         23.90  24.08  24.87  25.23  26.50  26.66  33.10  37.98  39.17  41.47
         44.32  54.79  54.94  56.92  58.74  64.23  65.76  67.93  68.03  69.24
         73.51  86.63  89.38  90.66
  94  1 -16.38 -15.74 -14.81 -14.81 -12.45 -12.45 -11.39 -10.59  -9.20  -9.20
         -8.15  -7.85  -7.85  -7.53  -7.01  -6.98  -3.64  -3.41  -3.27  -3.27
         -2.32  -1.69  -1.69  -1.50  -1.37  -0.69  -0.52   0.33   0.33   0.45
          0.71   0.71   2.74   2.74   3.23   3.24   4.77   4.92   5.06   5.34
          5.40   5.40   6.45   6.45   7.23   8.19   8.79   9.19   9.19   9.19
          9.33   9.33  11.13  11.47  11.47  11.79  13.11  13.32  13.54  13.54
         13.70  14.80  15.05  15.05  16.24  16.24  16.71  16.76  17.30  17.51
         17.51  17.91  17.91  19.30  19.30  19.32  20.92  22.30  22.45  24.06
         24.66  24.66  25.50  27.54  28.16  28.16  32.70  33.64  36.57  36.57
         41.86  49.36  56.43  56.43  57.34  62.22  64.66  68.88  68.88  70.55
         81.39  87.07  87.07  94.92
  95  1 -15.97 -15.42 -15.42 -15.05 -12.49 -12.08 -12.08 -11.44  -8.72  -8.28
         -8.28  -7.56  -7.29  -7.25  -7.25  -6.68  -3.52  -3.47  -3.08  -3.08
         -2.39  -2.39  -2.03  -1.99  -1.54  -1.19  -1.04  -1.04   1.23   1.23
          2.03   2.20   2.43   3.06   3.43   3.89   3.89   4.26   4.26   4.49
          5.14   6.95   6.95   7.15   7.15   7.67   8.03   8.62   8.83   8.83
          8.98   9.28   9.34  10.11  10.55  10.55  13.89  14.13  14.13  15.12
         15.12  15.16  15.64  15.88  15.91  16.01  16.62  16.62  17.79  18.46
         18.49  18.49  19.10  19.10  19.44  19.94  20.63  20.63  21.31  22.02
         27.07  27.32  27.32  29.10  29.17  32.63  32.63  34.73  40.13  41.94
         41.94  48.14  55.91  55.91  58.92  59.77  64.81  76.33  76.33  80.91
         82.23  82.23  90.50  95.23
  96  1 -15.98 -15.42 -15.41 -15.05 -12.49 -12.09 -12.08 -11.44  -8.71  -8.28
         -8.28  -7.55  -7.29  -7.25  -7.25  -6.69  -3.51  -3.48  -3.09  -3.08
         -2.40  -2.39  -2.02  -2.00  -1.54  -1.17  -1.04  -1.04   1.22   1.22
          2.03   2.21   2.41   3.06   3.44   3.89   3.89   4.25   4.26   4.49
          5.14   6.94   6.95   7.15   7.16   7.68   8.01   8.62   8.84   8.86
          8.98   9.26   9.33  10.11  10.54  10.55  13.89  14.12  14.13  15.12
         15.12  15.17  15.63  15.90  15.93  16.01  16.61  16.62  17.79  18.44
         18.50  18.52  19.11  19.13  19.47  19.93  20.62  20.62  21.33  21.98
         27.10  27.33  27.33  29.07  29.18  32.62  32.64  34.79  40.08  41.93
         41.97  48.18  55.90  55.93  58.98  59.83  64.90  76.38  76.40  80.88
         82.18  82.18  90.49  95.14
  97  1 -15.98 -15.42 -15.42 -15.04 -12.50 -12.08 -12.08 -11.44  -8.71  -8.27
         -8.27  -7.56  -7.29  -7.26  -7.26  -6.68  -3.51  -3.48  -3.08  -3.08
         -2.41  -2.40  -2.04  -1.98  -1.55  -1.18  -1.03  -1.03   1.22   1.22
          2.03   2.21   2.42   3.06   3.43   3.89   3.89   4.27   4.27   4.49
          5.16   6.95   6.95   7.15   7.15   7.67   8.01   8.62   8.84   8.84
          9.01   9.26   9.32  10.10  10.54  10.54  13.89  14.12  14.12  15.13
         15.13  15.19  15.63  15.87  15.93  16.02  16.62  16.62  17.79  18.43
         18.50  18.50  19.10  19.10  19.45  19.96  20.64  20.64  21.31  22.02
         27.08  27.32  27.32  29.06  29.22  32.70  32.70  34.73  40.11  41.92
         41.92  48.12  55.96  55.97  58.80  59.85  64.90  76.41  76.41  80.90
         82.24  82.24  90.43  95.06
  98  1 -16.15 -15.53 -15.53 -14.98 -12.03 -11.38 -11.38 -10.58  -9.74  -9.24
         -9.23  -8.62  -7.42  -7.36  -7.36  -6.61  -3.63  -2.90  -2.68  -2.68
         -2.01  -2.01  -1.62  -1.42  -0.31  -0.31  -0.28  -0.13   0.24   0.24
          0.53   0.97   1.56   1.93   2.34   2.59   2.59   4.09   4.09   5.19
          5.78   7.71   7.71   7.99   8.55   8.56   9.43   9.58   9.80   9.91
          9.91  10.61  11.12  11.68  11.68  12.08  12.73  12.90  12.97  12.97
         13.57  13.79  13.79  14.52  15.05  15.30  15.30  15.53  17.64  18.46
         18.46  19.26  20.07  20.07  20.54  20.58  21.81  21.81  21.99  22.53
         25.50  26.13  26.27  26.27  28.03  36.17  36.17  41.40  45.06  45.06
         51.43  51.44  54.67  54.67  59.85  61.81  63.52  69.94  69.95  81.65
         81.65  82.54  85.17  88.20
  99  1 -16.15 -15.53 -15.53 -14.98 -12.02 -11.38 -11.38 -10.59  -9.75  -9.24
         -9.24  -8.62  -7.42  -7.35  -7.35  -6.61  -3.63  -2.90  -2.68  -2.68
         -2.01  -2.01  -1.62  -1.42  -0.30  -0.30  -0.29  -0.13   0.23   0.23
          0.53   0.97   1.56   1.93   2.34   2.59   2.59   4.10   4.10   5.18
          5.78   7.71   7.71   8.00   8.56   8.56   9.43   9.57   9.80   9.91
          9.91  10.63  11.13  11.67  11.67  12.09  12.71  12.90  13.00  13.00
         13.57  13.77  13.77  14.53  15.04  15.30  15.30  15.52  17.65  18.46
         18.46  19.26  20.07  20.07  20.53  20.56  21.81  21.81  21.99  22.54
         25.50  26.11  26.27  26.27  28.06  36.15  36.15  41.40  44.98  44.98
         51.41  51.45  54.67  54.67  59.93  61.76  63.49  69.92  69.92  81.64
         81.64  82.55  85.19  88.12
 100  1 -15.97 -15.42 -15.42 -15.05 -12.49 -12.08 -12.08 -11.44  -8.72  -8.28
         -8.28  -7.56  -7.29  -7.25  -7.25  -6.68  -3.52  -3.47  -3.08  -3.08
         -2.39  -2.39  -2.03  -1.99  -1.54  -1.19  -1.04  -1.04   1.23   1.23
          2.03   2.20   2.43   3.06   3.43   3.89   3.89   4.26   4.26   4.49
          5.14   6.95   6.95   7.15   7.15   7.67   8.03   8.62   8.83   8.83
          8.98   9.28   9.34  10.11  10.55  10.55  13.89  14.13  14.13  15.12
         15.12  15.16  15.64  15.88  15.91  16.01  16.62  16.62  17.79  18.46
         18.49  18.49  19.10  19.10  19.44  19.94  20.63  20.63  21.31  22.02
         27.07  27.32  27.32  29.10  29.17  32.63  32.63  34.73  40.13  41.94
         41.94  48.14  55.91  55.91  58.92  59.77  64.81  76.33  76.33  80.91
         82.23  82.23  90.50  95.23
 101  1 -15.64 -15.28 -15.28 -15.28 -12.59 -12.59 -12.59 -12.19  -7.50  -7.50
         -7.50  -7.07  -7.07  -7.07  -6.85  -6.85  -4.15  -3.67  -3.67  -3.67
         -2.30  -2.30  -2.29  -2.17  -2.17  -1.88  -1.88  -1.88   2.72   2.72
          2.72   3.12   4.00   4.00   4.05   4.05   4.05   5.03   5.33   5.33
          5.33   6.13   6.13   6.13   6.26   6.26   6.27   7.70   7.70   7.92
          7.92   7.92   8.74   8.74   8.74   8.83  16.01  16.01  16.01  16.10
         16.55  16.55  16.81  16.81  16.81  17.46  17.46  17.46  18.21  18.21
         18.21  19.06  19.06  19.06  19.53  19.53  19.53  20.12  20.12  22.08
         28.55  28.55  28.55  30.08  30.08  30.19  30.19  30.19  52.50  52.50
         52.50  56.62  62.21  62.22  62.22  71.80  71.80  71.81  74.82  74.82
         86.84  86.84  86.84 103.00
 102  1 -15.65 -15.28 -15.28 -15.27 -12.60 -12.59 -12.59 -12.19  -7.49  -7.49
         -7.49  -7.08  -7.08  -7.08  -6.85  -6.84  -4.15  -3.67  -3.67  -3.67
         -2.31  -2.31  -2.31  -2.18  -2.16  -1.87  -1.87  -1.87   2.71   2.72
          2.72   3.12   4.00   4.01   4.04   4.05   4.05   5.05   5.33   5.34
          5.34   6.13   6.15   6.15   6.26   6.26   6.27   7.70   7.70   7.92
          7.92   7.93   8.73   8.73   8.76   8.79  16.01  16.01  16.03  16.08
         16.57  16.57  16.80  16.81  16.81  17.45  17.46  17.46  18.22  18.22
         18.25  19.07  19.09  19.09  19.50  19.50  19.50  20.12  20.14  22.03
         28.58  28.60  28.60  30.05  30.13  30.17  30.17  30.17  52.43  52.43
         52.53  56.61  62.18  62.26  62.26  71.77  71.77  71.85  74.70  74.82
         86.94  86.95  86.99 103.06
 103  1 -15.98 -15.42 -15.41 -15.05 -12.49 -12.09 -12.08 -11.44  -8.71  -8.28
         -8.28  -7.55  -7.29  -7.25  -7.25  -6.69  -3.51  -3.48  -3.09  -3.08
         -2.40  -2.39  -2.02  -2.00  -1.54  -1.17  -1.04  -1.04   1.22   1.22
          2.03   2.21   2.41   3.06   3.44   3.89   3.89   4.25   4.26   4.49
          5.14   6.94   6.95   7.15   7.16   7.68   8.01   8.62   8.84   8.86
          8.98   9.26   9.33  10.11  10.54  10.55  13.89  14.12  14.13  15.12
         15.12  15.17  15.63  15.90  15.93  16.01  16.61  16.62  17.79  18.44
         18.50  18.52  19.11  19.13  19.47  19.93  20.62  20.62  21.33  21.98
         27.10  27.33  27.33  29.07  29.18  32.62  32.64  34.79  40.08  41.93
         41.97  48.18  55.90  55.93  58.98  59.83  64.90  76.38  76.40  80.88
         82.18  82.18  90.49  95.14
 104  1 -16.16 -15.52 -15.52 -14.99 -12.02 -11.39 -11.39 -10.58  -9.74  -9.24
         -9.24  -8.62  -7.42  -7.35  -7.35  -6.62  -3.63  -2.90  -2.68  -2.68
         -2.02  -2.02  -1.61  -1.42  -0.32  -0.32  -0.27  -0.13   0.23   0.23
          0.54   0.98   1.57   1.93   2.33   2.58   2.58   4.10   4.11   5.18
          5.78   7.71   7.72   7.98   8.57   8.57   9.40   9.57   9.78   9.92
          9.92  10.62  11.12  11.67  11.69  12.08  12.73  12.91  12.98  12.98
         13.58  13.78  13.78  14.55  15.05  15.28  15.29  15.52  17.63  18.48
         18.49  19.26  20.08  20.09  20.53  20.56  21.79  21.80  22.01  22.52
         25.50  26.10  26.27  26.28  28.04  36.16  36.18  41.35  44.99  45.03
         51.47  51.53  54.62  54.64  60.05  61.77  63.57  69.89  69.91  81.56
         81.60  82.54  85.18  88.17
 105  1 -16.16 -15.52 -15.52 -14.99 -12.02 -11.39 -11.39 -10.58  -9.74  -9.24
         -9.24  -8.62  -7.42  -7.35  -7.35  -6.62  -3.63  -2.90  -2.68  -2.68
         -2.02  -2.02  -1.61  -1.42  -0.32  -0.32  -0.27  -0.13   0.23   0.23
          0.54   0.98   1.57   1.93   2.33   2.58   2.58   4.10   4.11   5.18
          5.78   7.71   7.72   7.98   8.57   8.57   9.40   9.57   9.78   9.92
          9.92  10.62  11.12  11.67  11.69  12.08  12.73  12.91  12.98  12.98
         13.58  13.78  13.78  14.55  15.05  15.28  15.29  15.52  17.63  18.48
         18.49  19.26  20.08  20.09  20.53  20.56  21.79  21.80  22.01  22.52
         25.50  26.10  26.27  26.28  28.04  36.16  36.18  41.35  44.99  45.03
         51.47  51.53  54.62  54.64  60.05  61.77  63.57  69.89  69.91  81.56
         81.60  82.54  85.18  88.17
 106  1 -15.98 -15.42 -15.41 -15.05 -12.49 -12.09 -12.08 -11.44  -8.71  -8.28
         -8.28  -7.55  -7.29  -7.25  -7.25  -6.69  -3.51  -3.48  -3.09  -3.08
         -2.40  -2.39  -2.02  -2.00  -1.54  -1.17  -1.04  -1.04   1.22   1.22
          2.03   2.21   2.41   3.06   3.44   3.89   3.89   4.25   4.26   4.49
          5.14   6.94   6.95   7.15   7.16   7.68   8.01   8.62   8.84   8.86
          8.98   9.26   9.33  10.11  10.54  10.55  13.89  14.12  14.13  15.12
         15.12  15.17  15.63  15.90  15.93  16.01  16.61  16.62  17.79  18.44
         18.50  18.52  19.11  19.13  19.47  19.93  20.62  20.62  21.33  21.98
         27.10  27.33  27.33  29.07  29.18  32.62  32.64  34.79  40.08  41.93
         41.97  48.18  55.90  55.93  58.98  59.83  64.90  76.38  76.40  80.88
         82.18  82.18  90.49  95.14
 107  1 -15.65 -15.28 -15.28 -15.27 -12.60 -12.59 -12.59 -12.19  -7.49  -7.49
         -7.49  -7.08  -7.08  -7.08  -6.85  -6.84  -4.15  -3.67  -3.67  -3.67
         -2.31  -2.31  -2.31  -2.18  -2.16  -1.87  -1.87  -1.87   2.71   2.72
          2.72   3.12   4.00   4.01   4.04   4.05   4.05   5.05   5.33   5.34
          5.34   6.13   6.15   6.15   6.26   6.26   6.27   7.70   7.70   7.92
          7.92   7.93   8.73   8.73   8.76   8.79  16.01  16.01  16.03  16.08
         16.57  16.57  16.80  16.81  16.81  17.45  17.46  17.46  18.22  18.22
         18.25  19.07  19.09  19.09  19.50  19.50  19.50  20.12  20.14  22.03
         28.58  28.60  28.60  30.05  30.13  30.17  30.17  30.17  52.43  52.43
         52.53  56.61  62.18  62.26  62.26  71.77  71.77  71.85  74.70  74.82
         86.94  86.95  86.99 103.06
 108  1 -15.65 -15.28 -15.28 -15.27 -12.60 -12.59 -12.59 -12.19  -7.49  -7.49
         -7.49  -7.08  -7.08  -7.08  -6.85  -6.84  -4.15  -3.67  -3.67  -3.67
         -2.31  -2.31  -2.31  -2.18  -2.16  -1.87  -1.87  -1.87   2.71   2.72
          2.72   3.12   4.00   4.01   4.04   4.05   4.05   5.05   5.33   5.34
          5.34   6.13   6.15   6.15   6.26   6.26   6.27   7.70   7.70   7.92
          7.92   7.93   8.73   8.73   8.76   8.79  16.01  16.01  16.03  16.08
         16.57  16.57  16.80  16.81  16.81  17.45  17.46  17.46  18.22  18.22
         18.25  19.07  19.09  19.09  19.50  19.50  19.50  20.12  20.14  22.03
         28.58  28.60  28.60  30.05  30.13  30.17  30.17  30.17  52.43  52.43
         52.53  56.61  62.18  62.26  62.26  71.77  71.77  71.85  74.70  74.82
         86.94  86.95  86.99 103.06
siesta: Fermi energy =      -5.342758 eV

siesta: Program's energy decomposition (eV):
siesta: Ebs     =      -344.535226
siesta: Eions   =      1510.441798
siesta: Ena     =       465.120745
siesta: Ekin    =       325.492414
siesta: Enl     =       111.059591
siesta: DEna    =         5.009878
siesta: DUscf   =         1.533287
siesta: DUext   =         0.000000
siesta: Exc     =      -259.736861
siesta: eta*DQ  =         0.000000
siesta: Emadel  =         0.000000
siesta: Emeta   =         0.000000
siesta: Emolmec =         0.000000
siesta: Ekinion =         0.000000
siesta: Eharris =      -861.971404
siesta: Etot    =      -861.962745
siesta: FreeEng =      -861.962745

siesta: Final energy (eV):
siesta:  Band Struct. =    -344.535226
siesta:       Kinetic =     325.492414
siesta:       Hartree =      57.734268
siesta:    Ext. field =       0.000000
siesta:   Exch.-corr. =    -259.736861
siesta:  Ion-electron =    -446.827799
siesta:       Ion-ion =    -538.624768
siesta:       Ekinion =       0.000000
siesta:         Total =    -861.962745

siesta: Stress tensor (static) (eV/Ang**3):
siesta:    -0.000969   -0.000597   -0.000597
siesta:    -0.000597   -0.000969   -0.000597
siesta:    -0.000597   -0.000597   -0.000969

siesta: Constrained stress tensor (static) (eV/Ang**3):
siesta:    -0.000969   -0.000597   -0.000597
siesta:    -0.000597   -0.000969   -0.000597
siesta:    -0.000597   -0.000597   -0.000969

siesta: Cell volume =        160.708017 Ang**3

siesta: Pressure (static):
siesta:                Solid            Molecule  Units
siesta:           0.00001055          0.00000010  Ry/Bohr**3
siesta:           0.00096911          0.00000877  eV/Ang**3
siesta:           1.55269664          0.01405575  kBar
(Free)E+ p_basis*V_orbitals  =        -852.989142
(Free)Eharris+ p_basis*V_orbitals  =        -853.000666

* Maximum dynamic memory allocated : Node    0 =    87 MB

* Maximum memory occured during init_pulay_arrrays            

timer: CPU execution times:
timer:  Routine       Calls   Time/call    Tot.time        %
timer:  siesta            1     300.171     300.171   100.00
timer:  Setup             1       0.112       0.112     0.04
timer:  bands             3       0.555       1.664     0.55
timer:  writewave         3       0.007       0.020     0.01
timer:  KSV_init          1       0.000       0.000     0.00
timer:  IterMD            3      99.425     298.275    99.37
timer:  hsparse           3       0.208       0.624     0.21
timer:  overlap           3       0.159       0.476     0.16
timer:  IterSCF          16      15.546     248.740    82.87
timer:  kinefsm           6       0.136       0.816     0.27
timer:  nlefsm            6       3.868      23.205     7.73
timer:  DHSCF            19       9.118     173.243    57.71
timer:  DHSCF1            3       0.049       0.148     0.05
timer:  DHSCF2            3       2.329       6.988     2.33
timer:  REORD           120       0.000       0.020     0.01
timer:  POISON           22       0.005       0.112     0.04
timer:  DHSCF3           19       8.100     153.894    51.27
timer:  rhoofd           19       3.755      71.344    23.77
timer:  cellXC           19       0.013       0.240     0.08
timer:  vmat             19       4.325      82.181    27.38
timer:  MolMec            6       0.000       0.000     0.00
timer:  diagon           16       6.172      98.750    32.90
timer:  c-eigval       1829       0.016      30.134    10.04
timer:  c-buildHS      1829       0.012      21.921     7.30
timer:  cdiag          3558       0.007      24.970     8.32
timer:  cdiag1         3558       0.001       1.796     0.60
timer:  cdiag2         3558       0.002       6.561     2.19
timer:  cdiag3         3558       0.005      16.021     5.34
timer:  cdiag4         3558       0.000       0.460     0.15
timer:  c-eigvec       1729       0.022      37.678    12.55
timer:  c-buildD       1728       0.019      32.438    10.81
timer:  DHSCF4            3       4.071      12.213     4.07
timer:  dfscf             3       3.900      11.701     3.90
timer:  overfsm           3       0.115       0.344     0.11
timer:  optical           1       0.000       0.000     0.00
  

elaps: ELAPSED times:
elaps:  Routine       Calls   Time/call    Tot.time        %
elaps:  siesta            1     301.737     301.737   100.00
elaps:  Setup             1       0.116       0.116     0.04
elaps:  bands             3       0.557       1.671     0.55
elaps:  writewave         3       0.007       0.020     0.01
elaps:  KSV_init          1       0.000       0.000     0.00
elaps:  IterMD            3      99.943     299.830    99.37
elaps:  hsparse           3       0.210       0.629     0.21
elaps:  overlap           3       0.158       0.475     0.16
elaps:  IterSCF          16      15.629     250.071    82.88
elaps:  kinefsm           6       0.138       0.828     0.27
elaps:  nlefsm            6       3.887      23.320     7.73
elaps:  DHSCF            19       9.168     174.196    57.73
elaps:  DHSCF1            3       0.051       0.153     0.05
elaps:  DHSCF2            3       2.338       7.015     2.32
elaps:  REORD           120       0.000       0.007     0.00
elaps:  POISON           22       0.005       0.105     0.03
elaps:  DHSCF3           19       8.145     154.760    51.29
elaps:  rhoofd           19       3.776      71.748    23.78
elaps:  cellXC           19       0.013       0.240     0.08
elaps:  vmat             19       4.351      82.660    27.39
elaps:  MolMec            6       0.000       0.000     0.00
elaps:  diagon           16       6.201      99.212    32.88
elaps:  c-eigval       1829       0.017      30.289    10.04
elaps:  c-buildHS      1829       0.012      22.030     7.30
elaps:  cdiag          3558       0.007      25.156     8.34
elaps:  cdiag1         3558       0.001       1.856     0.62
elaps:  cdiag2         3558       0.002       6.597     2.19
elaps:  cdiag3         3558       0.005      16.097     5.33
elaps:  cdiag4         3558       0.000       0.504     0.17
elaps:  c-eigvec       1729       0.022      37.944    12.58
elaps:  c-buildD       1728       0.019      32.534    10.78
elaps:  DHSCF4            3       4.087      12.262     4.06
elaps:  dfscf             3       3.915      11.745     3.89
elaps:  overfsm           3       0.115       0.346     0.11
elaps:  optical           1       0.000       0.000     0.00
  
>> End of run:   9-MAY-2013  17:43:08
