Siesta Version:                                        siesta-3.2
Architecture  : x86_64-unknown-linux-gnu--unknown
Compiler flags: f95 -g -O2
SERIAL version

* Running in serial mode
>> Start of run:   9-MAY-2013  21:32:10

                           ***********************       
                           *  WELCOME TO SIESTA  *       
                           ***********************       

reinit: Reading from standard input
************************** Dump of input data file ****************************
Siesta Version:                                        siesta-3.2
Architecture  : x86_64-unknown-linux-gnu--unknown
Compiler flags: f95 -g -O2
SERIAL version

* Running in serial mode
>> Start of run:   9-MAY-2013  21:32:10

                           ***********************       
                           *  WELCOME TO SIESTA  *       
                           ***********************       

reinit: Reading from standard input
************************** Dump of input data file ****************************
************************** End of input data file *****************************

reinit: -----------------------------------------------------------------------
reinit: System Name: 
reinit: -----------------------------------------------------------------------
reinit: System Label: siesta                                                      
reinit: -----------------------------------------------------------------------
# FDF for silicon
SystemName             silicon          # Descriptive name of the system
SystemLabel            si          # Short name for naming files
NumberOfAtoms 8
NumberOfSpecies 1
%block ChemicalSpeciesLabel
1 14 Si
%endblock ChemicalSpeciesLabel
LatticeConstant  5.00 Ang
##Basis set Definition##
PAO.BasisType          split        # Type of PAO basis set
PAO.EnergyShift        50 meV
PAO.BasisSize          DZP          # (DZP) Double-z + polarization
#%block LatticeVectors
#0.500 0.500 0.000
#0.500 0.000 0.500
#0.000 0.500 0.500
#%endblock LatticeVectors
AtomicCoordinatesFormat NotScaledCartesianAng
%block AtomicCoordinatesAndAtomicSpecies
	0.00000000	0.00000000	0.00000000  1 Si  1
	1.36000000	1.36000000	1.36000000  1 Si  2
	2.72000000	2.72000000	0.00000000  1 Si  3
	4.08000000	4.08000000	1.36000000  1 Si  4
	2.72000000	0.00000000	2.72000000  1 Si  5
	4.08000000	1.36000000	4.08000000  1 Si  6
	0.00000000	2.72000000	2.72000000  1 Si  7
	1.36000000	4.08000000	4.08000000  1 Si  8
%endblock AtomicCoordinatesAndAtomicSpecies
MeshCutoff 100.0 Ry # 100, 120, 180, 260
kgrid_cutoff 30.0 Bohr # 30, 35, 40, 45
DM.Mixingweight  0.3
DM.NumberPulay    3
DM.Tolerance      1.d-3
DM.UseSaveDM      true
ElectronicTemperature 25 meV
SolutionMethod    diagon
XC.functional      GGA	    # Generalized Gradient Approximation
XC.authors        PBE          # Perdew-Burke-Ernzerhof
SpinPolarized     false
MD.TypeOfRun           CG           # Type of dynamics:
MD.VariableCell        true
MD.NumCGsteps          100          # Number of CG steps for coordinate optimization
MD.MaxCGDispl          0.2 Bohr     # Maximum atomic displacement
                                    #   in one CG step (Bohr)
MD.MaxForceTol         0.04 eV/Ang  # Tolerance in the maximum
                                    #   atomic force (Ry/Bohr)
				
##Output Specification##
WriteMDhistory         true         # Trajectory information
WriteCoorStep          true
WriteCoorXmol          true
WriteMDXmol            true
WriteEigenvalues true
WriteKbands      true
WriteBands       true
WriteWaveFunctions true
WriteMullikenPoP   1
%block BandLines
1	1.000	1.000 1.000 L
25	0.000	0.000	0.000 \Gamma
30	2.000	0.000	0.000 X
10	2.000	0.500	0.500 U
35	0.000	0.000	0.000 \Gamma
%endblock BandLines
%block WaveFuncKPoints
0.0 0.0 0.0 from 1 to 50 # > 16 = 4/2*8 (Valenzelektronen/2, Atomzahl ...)
%endblock WaveFuncKpoints
************************** End of input data file *****************************

reinit: -----------------------------------------------------------------------
reinit: System Name: silicon
reinit: -----------------------------------------------------------------------
reinit: System Label: si                                                          
reinit: -----------------------------------------------------------------------

initatom: Reading input for the pseudopotentials and atomic orbitals ----------
No species found!!!
ERROR STOP from Node:    0

initatom: Reading input for the pseudopotentials and atomic orbitals ----------
 Species number:            1  Label: Si Atomic number:          14
Ground state valence configuration:   3s02  3p02
Reading pseudopotential information in formatted form from Si.psf

Valence configuration for pseudopotential generation:
3s( 2.00) rc: 1.75
3p( 2.00) rc: 1.94
3d( 0.00) rc: 2.09
4f( 0.00) rc: 2.09
For Si, standard SIESTA heuristics set lmxkb to 3
 (one more than the basis l, including polarization orbitals).
Use PS.lmax or PS.KBprojectors blocks to override.

<basis_specs>
===============================================================================
Si                   Z=  14    Mass=  28.090        Charge= 0.17977+309
Lmxo=1 Lmxkb= 3    BasisType=split      Semic=F
L=0  Nsemic=0  Cnfigmx=3
          n=1  nzeta=2  polorb=0
            splnorm:   0.15000    
               vcte:    0.0000    
               rinn:    0.0000    
                rcs:    0.0000      0.0000    
            lambdas:    1.0000      1.0000    
L=1  Nsemic=0  Cnfigmx=3
          n=1  nzeta=2  polorb=1
            splnorm:   0.15000    
               vcte:    0.0000    
               rinn:    0.0000    
                rcs:    0.0000      0.0000    
            lambdas:    1.0000      1.0000    
-------------------------------------------------------------------------------
L=0  Nkbl=1  erefs: 0.17977+309
L=1  Nkbl=1  erefs: 0.17977+309
L=2  Nkbl=1  erefs: 0.17977+309
L=3  Nkbl=1  erefs: 0.17977+309
===============================================================================
</basis_specs>

atom: Called for Si                    (Z =  14)

read_vps: Pseudopotential generation method:
read_vps: ATM3      Troullier-Martins                       
Total valence charge:    4.00000

read_vps: Pseudopotential includes a core correction:
read_vps: Pseudo-core for xc-correction

xc_check: Exchange-correlation functional:
xc_check: GGA Perdew, Burke & Ernzerhof 1996
V l=0 = -2*Zval/r beyond r=  2.0104
V l=1 = -2*Zval/r beyond r=  2.0873
V l=2 = -2*Zval/r beyond r=  2.1670
V l=3 = -2*Zval/r beyond r=  2.1670
All V_l potentials equal beyond r=  2.0613
This should be close to max(r_c) in ps generation
All pots = -2*Zval/r beyond r=  2.1670

VLOCAL1: 99.0% of the norm of Vloc inside     10.216 Ry
VLOCAL1: 99.9% of the norm of Vloc inside     23.282 Ry
atom: Maximum radius for 4*pi*r*r*local-pseudopot. charge    2.45560
atom: Maximum radius for r*vlocal+2*Zval:    2.14012
GHOST: No ghost state for L =  0
GHOST: No ghost state for L =  1
GHOST: No ghost state for L =  2
GHOST: No ghost state for L =  3

KBgen: Kleinman-Bylander projectors: 
   l= 0   rc=  2.306811   el= -0.791441   Ekb=  5.289775   kbcos=  0.291595
   l= 1   rc=  2.394965   el= -0.300632   Ekb=  1.944256   kbcos=  0.287657
   l= 2   rc=  2.549439   el=  0.001958   Ekb= -1.788485   kbcos= -0.056492
   l= 3   rc=  2.782581   el=  0.003046   Ekb= -0.472620   kbcos= -0.006203

KBgen: Total number of  Kleinman-Bylander projectors:   16
atom: -------------------------------------------------------------------------

atom: SANKEY-TYPE ORBITALS:
atom: Selected multiple-zeta basis: split     

SPLIT: Orbitals with angular momentum L= 0

SPLIT: Basis orbitals for state 3s

SPLIT: PAO cut-off radius determined from an
SPLIT: energy shift=  0.003675 Ry

   izeta = 1
                 lambda =    1.000000
                     rc =    6.116033
                 energy =   -0.788343
                kinetic =    0.528041
    potential(screened) =   -1.316383
       potential(ionic) =   -3.704743

   izeta = 2
                 rmatch =    4.530823
              splitnorm =    0.150000
                 energy =   -0.692892
                kinetic =    0.848665
    potential(screened) =   -1.541557
       potential(ionic) =   -4.044985

SPLIT: Orbitals with angular momentum L= 1

SPLIT: Basis orbitals for state 3p

SPLIT: PAO cut-off radius determined from an
SPLIT: energy shift=  0.003675 Ry

   izeta = 1
                 lambda =    1.000000
                     rc =    7.853192
                 energy =   -0.297152
                kinetic =    0.797948
    potential(screened) =   -1.095101
       potential(ionic) =   -3.275753

   izeta = 2
                 rmatch =    5.330310
              splitnorm =    0.150000
                 energy =   -0.228170
                kinetic =    1.148579
    potential(screened) =   -1.376749
       potential(ionic) =   -3.739005

POLgen: Perturbative polarization orbital with L=  2

POLgen: Polarization orbital for state 3p

   izeta = 1
                     rc =    7.853192
                 energy =    0.340222
                kinetic =    1.096718
    potential(screened) =   -0.756496
       potential(ionic) =   -2.716423
atom: Total number of Sankey-type orbitals: 13

atm_pop: Valence configuration (for local Pseudopot. screening):
 3s( 2.00)                                                            
 3p( 2.00)                                                            
Vna: chval, zval:    4.00000   4.00000

Vna:  Cut-off radius for the neutral-atom potential:   7.853192
comcore: Pseudo-core radius Rcore=  2.999314

atom: _________________________________________________________________________

prinput: Basis input ----------------------------------------------------------

PAO.BasisType split     

%block ChemicalSpeciesLabel
    1   14 Si                      # Species index, atomic number, species label
%endblock ChemicalSpeciesLabel

%block PAO.Basis                 # Define Basis set
Si                    2                    # Species label, number of l-shells
 n=3   0   2                         # n, l, Nzeta 
   6.116      4.531   
   1.000      1.000   
 n=3   1   2 P   1                   # n, l, Nzeta, Polarization, NzetaPol
   7.853      5.330   
   1.000      1.000   
%endblock PAO.Basis

prinput: ----------------------------------------------------------------------

coor:   Atomic-coordinates input format  =     Cartesian coordinates
coor:                                          (in Angstroms)

siesta: Atomic coordinates (Bohr) and species
siesta:      0.00000   0.00000   0.00000  1        1
siesta:      2.57003   2.57003   2.57003  1        2
siesta:      5.14006   5.14006   0.00000  1        3
siesta:      7.71009   7.71009   2.57003  1        4
siesta:      5.14006   0.00000   5.14006  1        5
siesta:      7.71009   2.57003   7.71009  1        6
siesta:      0.00000   5.14006   5.14006  1        7
siesta:      2.57003   7.71009   7.71009  1        8

siesta: System type = bulk      

initatomlists: Number of atoms, orbitals, and projectors:      8   104   128

siesta: ******************** Simulation parameters ****************************
siesta:
siesta: The following are some of the parameters of the simulation.
siesta: A complete list of the parameters used, including default values,
siesta: can be found in file out.fdf
siesta:
redata: Non-Collinear-spin run           =     F
redata: SpinPolarized (Up/Down) run      =     F
redata: Number of spin components        =     1
redata: Long output                      =     F
redata: Number of Atomic Species         =        1
redata: Charge density info will appear in .RHO file
redata: Write Mulliken Pop.              =     Atomic and Orbital charges
redata: Mesh Cutoff                      =   100.0000  Ry
redata: Net charge of the system         =     0.0000 |e|
redata: Max. number of SCF Iter          =       50
redata: Performing Pulay mixing using    =     3 iterations
redata: Mix DM in first SCF step ?       =     F
redata: Write Pulay info on disk?        =     F
redata: Discard 1st Pulay DM after  kick =     F
redata: New DM Mixing Weight             =     0.3000
redata: New DM Occupancy tolerance       = 0.000000000001
redata: No kicks to SCF
redata: DM Mixing Weight for Kicks       =     0.5000
redata: DM Tolerance for SCF             =     0.001000
redata: Require Energy convergence for SCF =     F
redata: DM Energy tolerance for SCF      =     0.000100 eV
redata: Require Harris convergence for SCF =     F
redata: DM Harris energy tolerance for SCF =     0.000100 eV
redata: Using Saved Data (generic)   =     F
redata: Use continuation files for DM    =     T
redata: Neglect nonoverlap interactions  =     F
redata: Method of Calculation            =     Diagonalization
redata: Divide and Conquer               =     T
redata: Electronic Temperature           =     0.0018  Ry
redata: Fix the spin of the system       =     F
redata: Dynamics option                  =     CG coord. optimization
redata: Variable cell                    =     T
redata: Use continuation files for CG    =     F
redata: Max atomic displ per move        =     0.2000  Bohr
redata: Maximum number of CG moves       =      100
redata: Force tolerance                  =     0.0016  Ry/Bohr
redata: Stress tolerance                 =     1.0000  GPa
redata: ***********************************************************************
Total number of electrons:    32.000000
Total ionic charge:    32.000000
 Kpoints in:          196 . Kpoints trimmed:          172

siesta: k-grid: Number of k-points =   172
siesta: k-grid: Cutoff (effective) =    17.500 Ang
siesta: k-grid: Supercell and displacements
siesta: k-grid:    0   7   0      0.000
siesta: k-grid:    0   0   7      0.000
siesta: k-grid:    7   0   0      0.000
Naive supercell factors:     5    5    5

superc: Internal auxiliary supercell:     5 x     5 x     5  =     125
superc: Number of atoms, orbitals, and projectors:   1000  13000  16000

* Maximum dynamic memory allocated =     2 MB

siesta:                 ==============================
                            Begin CG move =      0
                        ==============================

outcoor: Atomic coordinates (Ang):                          
    0.00000000    0.00000000    0.00000000   1       1  Si
    1.36000000    1.36000000    1.36000000   1       2  Si
    2.72000000    2.72000000    0.00000000   1       3  Si
    4.08000000    4.08000000    1.36000000   1       4  Si
    2.72000000    0.00000000    2.72000000   1       5  Si
    4.08000000    1.36000000    4.08000000   1       6  Si
    0.00000000    2.72000000    2.72000000   1       7  Si
    1.36000000    4.08000000    4.08000000   1       8  Si

superc: Internal auxiliary supercell:     5 x     5 x     5  =     125
superc: Number of atoms, orbitals, and projectors:   1000  13000  16000

outcell: Unit cell vectors (Ang):
        5.000000    0.000000    0.000000
        0.000000    5.000000    0.000000
        0.000000    0.000000    5.000000

outcell: Cell vector modules (Ang)   :    5.000000    5.000000    5.000000
outcell: Cell angles (23,13,12) (deg):     90.0000     90.0000     90.0000
outcell: Cell volume (Ang**3)        :    125.0000
New_DM. Step:     1
Initializing Density Matrix...

InitMesh: MESH =    32 x    32 x    32 =       32768
InitMesh: Mesh cutoff (required, used) =   100.000   113.204 Ry

* Maximum dynamic memory allocated =    80 MB

stepf: Fermi-Dirac step function

siesta: Program's energy decomposition (eV):
siesta: Ebs     =      -389.644984
siesta: Eions   =      1510.441798
siesta: Ena     =       450.581896
siesta: Ekin    =       288.667622
siesta: Enl     =       172.533716
siesta: DEna    =         0.000001
siesta: DUscf   =         0.000000
siesta: DUext   =         0.000000
siesta: Exc     =      -461.227912
siesta: eta*DQ  =         0.000000
siesta: Emadel  =         0.000000
siesta: Emeta   =         0.000000
siesta: Emolmec =         0.000000
siesta: Ekinion =         0.000000
siesta: Eharris =     -1020.992119
siesta: Etot    =     -1059.886475
siesta: FreeEng =     -1059.886475

siesta: iscf   Eharris(eV)      E_KS(eV)   FreeEng(eV)   dDmax  Ef(eV)
siesta:    1    -1020.9921    -1059.8865    -1059.8865  1.6511 -6.0835
timer: Routine,Calls,Time,% = IterSCF        1      30.298  97.63
elaps: Routine,Calls,Wall,% = IterSCF        1      30.401  97.60
siesta:    2    -1020.7194    -1020.0632    -1020.0657  0.2326 -5.6945
siesta:    3    -1020.3675    -1024.3347    -1024.3385  0.1805 -5.8077
siesta:    4    -1020.3631    -1021.1765    -1021.1800  0.0446 -5.8075
siesta:    5    -1020.3622    -1020.4102    -1020.4137  0.0086 -5.8108
siesta:    6    -1020.3619    -1020.4636    -1020.4671  0.0070 -5.8138
siesta:    7    -1020.3619    -1020.4463    -1020.4498  0.0052 -5.8139
siesta:    8    -1020.3620    -1020.4036    -1020.4071  0.0021 -5.8136
siesta:    9    -1020.3620    -1020.3799    -1020.3834  0.0009 -5.8134

siesta: E_KS(eV) =            -1020.3661

siesta: E_KS - E_eggbox =     -1020.3661

siesta: Atomic forces (eV/Ang):
----------------------------------------
   Tot   -0.013268   -0.013282   -0.013276
----------------------------------------
   Max    5.553510
   Res    3.728098    sqrt( Sum f_i^2 / 3N )
----------------------------------------
   Max    5.553510    constrained

Stress-tensor-Voigt (kbar):     -537.18     -537.18     -537.18      171.30      171.30      171.30
(Free)E + p*V (eV/cell)     -978.4599
Target enthalpy (eV/cell)    -1020.3695

siesta: Stress tensor (static) (eV/Ang**3):
        -0.335277    0.106915    0.106914
         0.106915   -0.335277    0.106914
         0.106914    0.106914   -0.335277

siesta: Pressure (static):        537.17865576  kBar

siesta: Stress tensor (total) (eV/Ang**3):
        -0.335277    0.106915    0.106914
         0.106915   -0.335277    0.106914
         0.106914    0.106914   -0.335277

siesta: Pressure (total):        537.17865576  kBar

mulliken: Mulliken Atomic and Orbital Populations:

Species: Si                  
Atom  Qatom  Qorb
               3s      3s      3py     3pz     3px     3py     3pz     3px     
               3Pdxy   3Pdyz   3Pdz2   3Pdxz   3Pdx2-y2
   1  4.404   0.169   0.888   0.100   0.100   0.100   0.699   0.699   0.699
              0.195   0.195   0.183   0.195   0.183
   2  3.766   0.622   0.609   0.003   0.003   0.003   0.644   0.644   0.644
              0.142   0.142   0.083   0.142   0.083
   3  3.874   0.482   0.670  -0.043   0.060  -0.043   0.707   0.653   0.707
              0.167   0.152   0.090   0.152   0.121
   4  4.069   0.348   0.748   0.034  -0.048   0.034   0.712   0.748   0.712
              0.167   0.170   0.162   0.170   0.110
   5  3.874   0.482   0.670   0.060  -0.043  -0.043   0.653   0.707   0.707
              0.152   0.152   0.113   0.167   0.098
   6  4.069   0.348   0.748  -0.048   0.034   0.034   0.748   0.712   0.712
              0.170   0.170   0.123   0.167   0.149
   7  3.874   0.482   0.670  -0.043  -0.043   0.060   0.707   0.707   0.653
              0.152   0.167   0.113   0.152   0.098
   8  4.069   0.348   0.748   0.034   0.034  -0.048   0.712   0.712   0.748
              0.170   0.167   0.123   0.170   0.149

mulliken: Qtot =       32.000

cgvc: No target stress found, assuming hydrostatic MD.TargetPressure.

cgvc: Target stress (kBar)
cgvc:        -0.000       0.000       0.000
cgvc:         0.000      -0.000       0.000
cgvc:         0.000       0.000      -0.000

* Maximum dynamic memory allocated =    82 MB

siesta:                 ==============================
                            Begin CG move =      1
                        ==============================

outcoor: Atomic coordinates (Ang):                          
    0.01532641    0.01532641    0.01532647   1       1  Si
    1.36650741    1.36650741    1.36650736   1       2  Si
    2.73066137    2.73066137    0.00295360   1       3  Si
    4.07260608    4.07260606    1.37271353   1       4  Si
    2.73066139    0.00295357    2.73066138   1       5  Si
    4.07260613    1.37271358    4.07260609   1       6  Si
    0.00295356    2.73066137    2.73066141   1       7  Si
    1.37271357    4.07260610    4.07260609   1       8  Si
 Kpoints in:          196 . Kpoints trimmed:          172

siesta: k-grid: Number of k-points =   172
siesta: k-grid: Cutoff (effective) =    17.631 Ang
siesta: k-grid: Supercell and displacements
siesta: k-grid:    0   0   7      0.000
siesta: k-grid:    7   0   0      0.000
siesta: k-grid:    0   7   0      0.000
Naive supercell factors:     5    5    5

superc: Internal auxiliary supercell:     5 x     5 x     5  =     125
superc: Number of atoms, orbitals, and projectors:   1000  13000  16000

outcell: Unit cell vectors (Ang):
        5.037295   -0.011893   -0.011893
       -0.011893    5.037295   -0.011893
       -0.011893   -0.011893    5.037295

outcell: Cell vector modules (Ang)   :    5.037323    5.037323    5.037323
outcell: Cell angles (23,13,12) (deg):     90.2702     90.2702     90.2702
outcell: Cell volume (Ang**3)        :    127.8159
New_DM. Step:     2
Re-using DM from previous geometry...
Re-using DM without extrapolation (not allowed)
Density Matrix sparsity pattern changed.

InitMesh: MESH =    32 x    32 x    32 =       32768
InitMesh: Mesh cutoff (required, used) =   100.000   111.538 Ry

siesta: iscf   Eharris(eV)      E_KS(eV)   FreeEng(eV)   dDmax  Ef(eV)
siesta:    1    -1022.7279    -1021.2279    -1021.2313  0.0985 -5.7824
siesta:    2    -1022.7394    -1022.7121    -1022.7144  0.0211 -5.7489
siesta:    3    -1022.7215    -1022.6864    -1022.6888  0.0018 -5.7645
siesta:    4    -1022.7214    -1022.7000    -1022.7024  0.0009 -5.7670

siesta: E_KS(eV) =            -1022.7173

siesta: Atomic forces (eV/Ang):
----------------------------------------
   Tot    0.030227    0.030245    0.030311
----------------------------------------
   Max    4.292569
   Res    2.911633    sqrt( Sum f_i^2 / 3N )
----------------------------------------
   Max    4.292569    constrained

Stress-tensor-Voigt (kbar):     -458.83     -458.83     -458.83      128.71      128.71      128.71
(Free)E + p*V (eV/cell)     -986.1159
Target enthalpy (eV/cell)    -1022.7197

siesta: Stress tensor (static) (eV/Ang**3):
        -0.286379    0.080331    0.080331
         0.080331   -0.286379    0.080331
         0.080331    0.080331   -0.286379

siesta: Pressure (static):        458.83488828  kBar

siesta: Stress tensor (total) (eV/Ang**3):
        -0.286379    0.080331    0.080331
         0.080331   -0.286379    0.080331
         0.080331    0.080331   -0.286379

siesta: Pressure (total):        458.83488828  kBar

mulliken: Mulliken Atomic and Orbital Populations:

Species: Si                  
Atom  Qatom  Qorb
               3s      3s      3py     3pz     3px     3py     3pz     3px     
               3Pdxy   3Pdyz   3Pdz2   3Pdxz   3Pdx2-y2
   1  4.275   0.213   0.840   0.051   0.051   0.051   0.729   0.729   0.729
              0.187   0.187   0.161   0.187   0.161
   2  3.809   0.633   0.597   0.031   0.031   0.031   0.635   0.635   0.635
              0.139   0.139   0.082   0.139   0.082
   3  3.906   0.493   0.660  -0.014   0.076  -0.014   0.696   0.646   0.696
              0.163   0.150   0.090   0.150   0.116
   4  4.066   0.364   0.732   0.050  -0.051   0.050   0.703   0.756   0.703
              0.163   0.169   0.153   0.169   0.106
   5  3.906   0.493   0.660   0.076  -0.014  -0.014   0.646   0.696   0.696
              0.150   0.150   0.109   0.163   0.096
   6  4.066   0.364   0.732  -0.051   0.050   0.050   0.756   0.703   0.703
              0.169   0.169   0.118   0.163   0.142
   7  3.906   0.493   0.660  -0.014  -0.014   0.076   0.696   0.696   0.646
              0.150   0.163   0.109   0.150   0.096
   8  4.066   0.364   0.732   0.050   0.050  -0.051   0.703   0.703   0.756
              0.169   0.163   0.118   0.169   0.142

mulliken: Qtot =       32.000

* Maximum dynamic memory allocated =    93 MB

siesta:                 ==============================
                            Begin CG move =      2
                        ==============================

outcoor: Atomic coordinates (Ang):                          
    0.04002048    0.04002047    0.04002063   1       1  Si
    1.37695102    1.37695103    1.37695090   1       2  Si
    2.74749800    2.74749800    0.00822985   1       3  Si
    4.06003885    4.06003880    1.39421751   1       4  Si
    2.74749806    0.00822977    2.74749802   1       5  Si
    4.06003898    1.39421764    4.06003887   1       6  Si
    0.00822973    2.74749800    2.74749810   1       7  Si
    1.39421760    4.06003890    4.06003888   1       8  Si
 Kpoints in:          196 . Kpoints trimmed:          172

siesta: k-grid: Number of k-points =   172
siesta: k-grid: Cutoff (effective) =    17.840 Ang
siesta: k-grid: Supercell and displacements
siesta: k-grid:    0   0   7      0.000
siesta: k-grid:    7   0   0      0.000
siesta: k-grid:    0   7   0      0.000
Naive supercell factors:     5    5    5

superc: Internal auxiliary supercell:     5 x     5 x     5  =     125
superc: Number of atoms, orbitals, and projectors:   1000  13000  16000

outcell: Unit cell vectors (Ang):
        5.096968   -0.030922   -0.030921
       -0.030922    5.096968   -0.030921
       -0.030921   -0.030921    5.096968

outcell: Cell vector modules (Ang)   :    5.097155    5.097155    5.097155
outcell: Cell angles (23,13,12) (deg):     90.6930     90.6930     90.6930
outcell: Cell volume (Ang**3)        :    132.3999
New_DM. Step:     3
Re-using DM from previous geometry...
Re-using DM without extrapolation (not allowed)
Density Matrix sparsity pattern changed.

InitMesh: MESH =    32 x    32 x    32 =       32768
InitMesh: Mesh cutoff (required, used) =   100.000   108.962 Ry

siesta: iscf   Eharris(eV)      E_KS(eV)   FreeEng(eV)   dDmax  Ef(eV)
siesta:    1    -1025.5911    -1023.3738    -1023.3762  0.1136 -5.6591
siesta:    2    -1025.6633    -1025.5137    -1025.5150  0.0549 -5.5877
siesta:    3    -1025.5643    -1025.4068    -1025.4083  0.0094 -5.6287
siesta:    4    -1025.5635    -1025.5254    -1025.5268  0.0011 -5.6334
siesta:    5    -1025.5635    -1025.5434    -1025.5448  0.0006 -5.6336

siesta: E_KS(eV) =            -1025.5602

siesta: Atomic forces (eV/Ang):
----------------------------------------
   Tot   -0.022889   -0.022892   -0.022891
----------------------------------------
   Max    3.176580
   Res    1.958831    sqrt( Sum f_i^2 / 3N )
----------------------------------------
   Max    3.176580    constrained

Stress-tensor-Voigt (kbar):     -357.26     -357.26     -357.26       74.49       74.49       74.49
(Free)E + p*V (eV/cell)     -996.0389
Target enthalpy (eV/cell)    -1025.5616

siesta: Stress tensor (static) (eV/Ang**3):
        -0.222981    0.046495    0.046495
         0.046495   -0.222981    0.046495
         0.046495    0.046495   -0.222981

siesta: Pressure (static):        357.25869396  kBar

siesta: Stress tensor (total) (eV/Ang**3):
        -0.222981    0.046495    0.046495
         0.046495   -0.222981    0.046495
         0.046495    0.046495   -0.222981

siesta: Pressure (total):        357.25869396  kBar

mulliken: Mulliken Atomic and Orbital Populations:

Species: Si                  
Atom  Qatom  Qorb
               3s      3s      3py     3pz     3px     3py     3pz     3px     
               3Pdxy   3Pdyz   3Pdz2   3Pdxz   3Pdx2-y2
   1  4.122   0.309   0.764   0.031   0.031   0.031   0.724   0.724   0.724
              0.173   0.173   0.133   0.173   0.133
   2  3.869   0.639   0.587   0.075   0.075   0.075   0.617   0.617   0.617
              0.136   0.136   0.080   0.136   0.080
   3  3.953   0.500   0.651   0.036   0.097   0.036   0.672   0.639   0.672
              0.157   0.147   0.090   0.147   0.108
   4  4.050   0.393   0.709   0.079  -0.047   0.079   0.678   0.754   0.678
              0.157   0.166   0.138   0.166   0.100
   5  3.953   0.500   0.651   0.097   0.036   0.036   0.639   0.672   0.672
              0.147   0.147   0.104   0.157   0.094
   6  4.050   0.393   0.709  -0.047   0.079   0.079   0.754   0.678   0.678
              0.166   0.166   0.110   0.157   0.129
   7  3.953   0.500   0.651   0.036   0.036   0.097   0.672   0.672   0.639
              0.147   0.157   0.104   0.147   0.094
   8  4.050   0.393   0.709   0.079   0.079  -0.047   0.678   0.678   0.754
              0.166   0.157   0.110   0.166   0.129

mulliken: Qtot =       32.000

* Maximum dynamic memory allocated =    93 MB

siesta:                 ==============================
                            Begin CG move =      3
                        ==============================

outcoor: Atomic coordinates (Ang):                          
    0.07997081    0.07997077    0.07997112   1       1  Si
    1.39374210    1.39374211    1.39374184   1       2  Si
    2.77386943    2.77386943    0.01808108   1       3  Si
    4.03804468    4.03804457    1.43159941   1       4  Si
    2.77386954    0.01808093    2.77386946   1       5  Si
    4.03804494    1.43159967    4.03804471   1       6  Si
    0.01808085    2.77386942    2.77386962   1       7  Si
    1.43159961    4.03804478    4.03804474   1       8  Si
 Kpoints in:          196 . Kpoints trimmed:          172

siesta: k-grid: Number of k-points =   172
siesta: k-grid: Cutoff (effective) =    18.176 Ang
siesta: k-grid: Supercell and displacements
siesta: k-grid:    0   0   7      0.000
siesta: k-grid:    7   0   0      0.000
siesta: k-grid:    0   7   0      0.000
Naive supercell factors:     5    5    5

superc: Internal auxiliary supercell:     5 x     5 x     5  =     125
superc: Number of atoms, orbitals, and projectors:   1000  13000  16000

outcell: Unit cell vectors (Ang):
        5.192444   -0.061367   -0.061367
       -0.061367    5.192444   -0.061367
       -0.061367   -0.061367    5.192444

outcell: Cell vector modules (Ang)   :    5.193169    5.193169    5.193169
outcell: Cell angles (23,13,12) (deg):     91.3461     91.3461     91.3461
outcell: Cell volume (Ang**3)        :    139.9368
New_DM. Step:     4
Re-using DM from previous geometry...
Re-using DM without extrapolation (not allowed)
Density Matrix sparsity pattern changed.

InitMesh: MESH =    32 x    32 x    32 =       32768
InitMesh: Mesh cutoff (required, used) =   100.000   105.058 Ry

siesta: iscf   Eharris(eV)      E_KS(eV)   FreeEng(eV)   dDmax  Ef(eV)
siesta:    1    -1028.3230    -1025.2286    -1025.2300  0.1276 -5.4657
siesta:    2    -1028.6818    -1027.9433    -1027.9445  0.1156 -5.3880
siesta:    3    -1028.1962    -1027.6503    -1027.6519  0.0287 -5.4231
siesta:    4    -1028.1931    -1028.0942    -1028.0957  0.0020 -5.4279
siesta:    5    -1028.1931    -1028.1255    -1028.1269  0.0012 -5.4278
siesta:    6    -1028.1931    -1028.1856    -1028.1870  0.0004 -5.4274

siesta: E_KS(eV) =            -1028.1911

siesta: Atomic forces (eV/Ang):
----------------------------------------
   Tot   -0.022381   -0.022365   -0.022346
----------------------------------------
   Max    2.533596
   Res    1.163606    sqrt( Sum f_i^2 / 3N )
----------------------------------------
   Max    2.533596    constrained

Stress-tensor-Voigt (kbar):     -235.82     -235.82     -235.82        9.72        9.72        9.72
(Free)E + p*V (eV/cell)    -1007.5960
Target enthalpy (eV/cell)    -1028.1925

siesta: Stress tensor (static) (eV/Ang**3):
        -0.147184    0.006067    0.006067
         0.006067   -0.147184    0.006067
         0.006067    0.006067   -0.147184

siesta: Pressure (static):        235.81730066  kBar

siesta: Stress tensor (total) (eV/Ang**3):
        -0.147184    0.006067    0.006067
         0.006067   -0.147184    0.006067
         0.006067    0.006067   -0.147184

siesta: Pressure (total):        235.81730066  kBar

mulliken: Mulliken Atomic and Orbital Populations:

Species: Si                  
Atom  Qatom  Qorb
               3s      3s      3py     3pz     3px     3py     3pz     3px     
               3Pdxy   3Pdyz   3Pdz2   3Pdxz   3Pdx2-y2
   1  3.994   0.458   0.672   0.071   0.071   0.071   0.666   0.666   0.666
              0.150   0.150   0.100   0.150   0.100
   2  3.934   0.638   0.580   0.122   0.122   0.122   0.599   0.599   0.599
              0.132   0.132   0.078   0.132   0.078
   3  3.998   0.503   0.647   0.101   0.106   0.101   0.639   0.639   0.639
              0.147   0.145   0.092   0.145   0.096
   4  4.026   0.442   0.680   0.114   0.009   0.114   0.646   0.710   0.646
              0.148   0.156   0.115   0.156   0.092
   5  3.998   0.503   0.647   0.106   0.101   0.101   0.639   0.639   0.639
              0.145   0.145   0.095   0.147   0.093
   6  4.026   0.442   0.680   0.009   0.114   0.114   0.710   0.646   0.646
              0.156   0.156   0.098   0.148   0.109
   7  3.998   0.503   0.647   0.101   0.101   0.106   0.639   0.639   0.639
              0.145   0.147   0.095   0.145   0.093
   8  4.026   0.442   0.680   0.114   0.114   0.009   0.646   0.646   0.710
              0.156   0.148   0.098   0.156   0.109

mulliken: Qtot =       32.000

* Maximum dynamic memory allocated =    93 MB

siesta:                 ==============================
                            Begin CG move =      4
                        ==============================

outcoor: Atomic coordinates (Ang):                          
    0.12488846    0.12488841    0.12488896   1       1  Si
    1.41247198    1.41247200    1.41247157   1       2  Si
    2.80228643    2.80228643    0.03102815   1       3  Si
    4.01095053    4.01095034    1.47731718   1       4  Si
    2.80228660    0.03102790    2.80228647   1       5  Si
    4.01095091    1.47731759    4.01095055   1       6  Si
    0.03102778    2.80228642    2.80228673   1       7  Si
    1.47731749    4.01095066    4.01095060   1       8  Si
 Kpoints in:          108 . Kpoints trimmed:          108

siesta: k-grid: Number of k-points =   108
siesta: k-grid: Cutoff (effective) =    15.900 Ang
siesta: k-grid: Supercell and displacements
siesta: k-grid:    0   0   6      0.500
siesta: k-grid:    6   0   0      0.500
siesta: k-grid:    0   6   0      0.500
Naive supercell factors:     5    5    5

superc: Internal auxiliary supercell:     5 x     5 x     5  =     125
superc: Number of atoms, orbitals, and projectors:   1000  13000  16000

outcell: Unit cell vectors (Ang):
        5.298279   -0.095117   -0.095116
       -0.095117    5.298279   -0.095116
       -0.095116   -0.095116    5.298279

outcell: Cell vector modules (Ang)   :    5.299986    5.299986    5.299986
outcell: Cell angles (23,13,12) (deg):     92.0378     92.0378     92.0378
outcell: Cell volume (Ang**3)        :    148.5865
New_DM. Step:     5
Re-using DM from previous geometry...
Re-using DM without extrapolation (not allowed)
Density Matrix sparsity pattern changed.

InitMesh: MESH =    32 x    32 x    32 =       32768
InitMesh: Mesh cutoff (required, used) =   100.000   101.017 Ry

siesta: iscf   Eharris(eV)      E_KS(eV)   FreeEng(eV)   dDmax  Ef(eV)
siesta:    1    -1029.3838    -1026.7347    -1026.7361  0.0816 -5.5115
siesta:    2    -1030.1501    -1028.6026    -1028.6034  0.1287 -5.5220
siesta:    3    -1029.1224    -1028.2977    -1028.2990  0.0386 -5.5158
siesta:    4    -1029.1206    -1028.9523    -1028.9532  0.0030 -5.5200
siesta:    5    -1029.1206    -1029.0157    -1029.0165  0.0015 -5.5192
siesta:    6    -1029.1205    -1029.0851    -1029.0860  0.0007 -5.5179

siesta: E_KS(eV) =            -1029.1017

siesta: Atomic forces (eV/Ang):
----------------------------------------
   Tot    0.008125    0.008129    0.008137
----------------------------------------
   Max    1.608656
   Res    1.108462    sqrt( Sum f_i^2 / 3N )
----------------------------------------
   Max    1.608656    constrained

Stress-tensor-Voigt (kbar):     -148.08     -148.08     -148.08      -37.01      -37.01      -37.01
(Free)E + p*V (eV/cell)    -1015.3697
Target enthalpy (eV/cell)    -1029.1026

siesta: Stress tensor (static) (eV/Ang**3):
        -0.092424   -0.023097   -0.023097
        -0.023097   -0.092424   -0.023097
        -0.023097   -0.023097   -0.092424

siesta: Pressure (static):        148.08049849  kBar

siesta: Stress tensor (total) (eV/Ang**3):
        -0.092424   -0.023097   -0.023097
        -0.023097   -0.092424   -0.023097
        -0.023097   -0.023097   -0.092424

siesta: Pressure (total):        148.08049849  kBar

mulliken: Mulliken Atomic and Orbital Populations:

Species: Si                  
Atom  Qatom  Qorb
               3s      3s      3py     3pz     3px     3py     3pz     3px     
               3Pdxy   3Pdyz   3Pdz2   3Pdxz   3Pdx2-y2
   1  3.978   0.628   0.585   0.176   0.176   0.176   0.567   0.567   0.567
              0.127   0.127   0.078   0.127   0.078
   2  3.977   0.613   0.590   0.167   0.167   0.167   0.576   0.576   0.576
              0.131   0.131   0.077   0.131   0.077
   3  4.010   0.503   0.645   0.161   0.089   0.161   0.599   0.647   0.599
              0.139   0.143   0.097   0.143   0.084
   4  4.005   0.512   0.641   0.159   0.082   0.159   0.601   0.648   0.601
              0.138   0.141   0.097   0.141   0.085
   5  4.010   0.503   0.645   0.089   0.161   0.161   0.647   0.599   0.599
              0.143   0.143   0.087   0.139   0.094
   6  4.005   0.512   0.641   0.082   0.159   0.159   0.648   0.601   0.601
              0.141   0.141   0.088   0.138   0.094
   7  4.010   0.503   0.645   0.161   0.161   0.089   0.599   0.599   0.647
              0.143   0.139   0.087   0.143   0.094
   8  4.005   0.512   0.641   0.159   0.159   0.082   0.601   0.601   0.648
              0.141   0.138   0.088   0.141   0.094

mulliken: Qtot =       32.000

* Maximum dynamic memory allocated =    93 MB

siesta:                 ==============================
                            Begin CG move =      5
                        ==============================

outcoor: Atomic coordinates (Ang):                          
    0.17047127    0.17047120    0.17047197   1       1  Si
    1.43132481    1.43132484    1.43132424   1       2  Si
    2.82984564    2.82984564    0.04610647   1       3  Si
    3.98100317    3.98100292    1.52753499   1       4  Si
    2.82984587    0.04610613    2.82984571   1       5  Si
    3.98100369    1.52753556    3.98100320   1       6  Si
    0.04610595    2.82984562    2.82984606   1       7  Si
    1.52753542    3.98100335    3.98100327   1       8  Si
 Kpoints in:          108 . Kpoints trimmed:          108

siesta: k-grid: Number of k-points =   108
siesta: k-grid: Cutoff (effective) =    16.222 Ang
siesta: k-grid: Supercell and displacements
siesta: k-grid:    0   0   6      0.500
siesta: k-grid:    6   0   0      0.500
siesta: k-grid:    0   6   0      0.500
Naive supercell factors:     5    5    5

superc: Internal auxiliary supercell:     5 x     5 x     5  =     125
superc: Number of atoms, orbitals, and projectors:   1000  13000  16000

outcell: Unit cell vectors (Ang):
        5.404115   -0.128866   -0.128866
       -0.128866    5.404115   -0.128866
       -0.128866   -0.128866    5.404114

outcell: Cell vector modules (Ang)   :    5.407187    5.407187    5.407186
outcell: Cell angles (23,13,12) (deg):     92.6979     92.6979     92.6979
outcell: Cell volume (Ang**3)        :    157.5507
New_DM. Step:     6
Re-using DM from previous geometry...
Re-using DM without extrapolation (not allowed)
Density Matrix sparsity pattern changed.

InitMesh: MESH =    36 x    36 x    36 =       46656
InitMesh: Mesh cutoff (required, used) =   100.000   123.080 Ry

siesta: iscf   Eharris(eV)      E_KS(eV)   FreeEng(eV)   dDmax  Ef(eV)
siesta:    1    -1028.9264    -1027.1712    -1027.1721  0.0876 -5.3971
siesta:    2    -1030.0631    -1027.9109    -1027.9127  0.1121 -5.3128
siesta:    3    -1028.5963    -1027.8887    -1027.8914  0.0377 -5.4364
siesta:    4    -1028.5961    -1028.3647    -1028.3660  0.0064 -5.4448
siesta:    5    -1028.5957    -1028.4668    -1028.4681  0.0031 -5.4453
siesta:    6    -1028.5956    -1028.5473    -1028.5486  0.0007 -5.4450

siesta: E_KS(eV) =            -1028.5706

siesta: Atomic forces (eV/Ang):
----------------------------------------
   Tot    0.003795    0.003800    0.003805
----------------------------------------
   Max    2.103164
   Res    1.439610    sqrt( Sum f_i^2 / 3N )
----------------------------------------
   Max    2.103164    constrained

Stress-tensor-Voigt (kbar):      -93.42      -93.42      -93.42      -68.23      -68.23      -68.23
(Free)E + p*V (eV/cell)    -1019.3860
Target enthalpy (eV/cell)    -1028.5719

siesta: Stress tensor (static) (eV/Ang**3):
        -0.058305   -0.042587   -0.042586
        -0.042587   -0.058305   -0.042586
        -0.042586   -0.042586   -0.058305

siesta: Pressure (static):         93.41559431  kBar

siesta: Stress tensor (total) (eV/Ang**3):
        -0.058305   -0.042587   -0.042586
        -0.042587   -0.058305   -0.042586
        -0.042586   -0.042586   -0.058305

siesta: Pressure (total):         93.41559431  kBar

mulliken: Mulliken Atomic and Orbital Populations:

Species: Si                  
Atom  Qatom  Qorb
               3s      3s      3py     3pz     3px     3py     3pz     3px     
               3Pdxy   3Pdyz   3Pdz2   3Pdxz   3Pdx2-y2
   1  4.041   0.801   0.507   0.304   0.304   0.304   0.458   0.458   0.458
              0.107   0.107   0.062   0.107   0.062
   2  4.011   0.585   0.609   0.190   0.190   0.190   0.565   0.565   0.565
              0.132   0.132   0.078   0.132   0.078
   3  4.001   0.490   0.654   0.209   0.064   0.209   0.562   0.652   0.562
              0.132   0.141   0.111   0.141   0.074
   4  3.981   0.558   0.619   0.184   0.150   0.184   0.571   0.590   0.571
              0.129   0.129   0.087   0.129   0.081
   5  4.001   0.490   0.654   0.064   0.209   0.209   0.652   0.562   0.562
              0.141   0.141   0.083   0.132   0.102
   6  3.981   0.558   0.619   0.150   0.184   0.184   0.590   0.571   0.571
              0.129   0.129   0.082   0.129   0.085
   7  4.001   0.490   0.654   0.209   0.209   0.064   0.562   0.562   0.652
              0.141   0.132   0.083   0.141   0.102
   8  3.981   0.558   0.619   0.184   0.184   0.150   0.571   0.571   0.590
              0.129   0.129   0.082   0.129   0.085

mulliken: Qtot =       32.000

* Maximum dynamic memory allocated =    93 MB

siesta:                 ==============================
                            Begin CG move =      6
                        ==============================

outcoor: Atomic coordinates (Ang):                          
    0.13411935    0.13411929    0.13411989   1       1  Si
    1.41630217    1.41630220    1.41630173   1       2  Si
    2.80796957    2.80796957    0.03392663   1       3  Si
    4.00508190    4.00508170    1.48718116   1       4  Si
    2.80796976    0.03392637    2.80796962   1       5  Si
    4.00508231    1.48718161    4.00508193   1       6  Si
    0.03392623    2.80796956    2.80796990   1       7  Si
    1.48718150    4.00508204    4.00508198   1       8  Si
 Kpoints in:          108 . Kpoints trimmed:          108

siesta: k-grid: Number of k-points =   108
siesta: k-grid: Cutoff (effective) =    15.965 Ang
siesta: k-grid: Supercell and displacements
siesta: k-grid:    0   0   6      0.500
siesta: k-grid:    6   0   0      0.500
siesta: k-grid:    0   6   0      0.500
Naive supercell factors:     5    5    5

superc: Internal auxiliary supercell:     5 x     5 x     5  =     125
superc: Number of atoms, orbitals, and projectors:   1000  13000  16000

outcell: Unit cell vectors (Ang):
        5.319837   -0.101991   -0.101991
       -0.101991    5.319837   -0.101991
       -0.101991   -0.101991    5.319837

outcell: Cell vector modules (Ang)   :    5.321792    5.321792    5.321792
outcell: Cell angles (23,13,12) (deg):     92.1748     92.1748     92.1748
outcell: Cell volume (Ang**3)        :    150.3868
New_DM. Step:     7
Re-using DM from previous geometry...
Re-using DM without extrapolation (not allowed)
Density Matrix sparsity pattern changed.

InitMesh: MESH =    32 x    32 x    32 =       32768
InitMesh: Mesh cutoff (required, used) =   100.000   100.228 Ry

siesta: iscf   Eharris(eV)      E_KS(eV)   FreeEng(eV)   dDmax  Ef(eV)
siesta:    1    -1029.2780    -1029.8872    -1029.8885  0.0745 -5.5632
siesta:    2    -1029.7482    -1028.7940    -1028.7951  0.1020 -5.5540
siesta:    3    -1029.1149    -1029.2136    -1029.2143  0.0298 -5.5426
siesta:    4    -1029.1138    -1029.0356    -1029.0363  0.0048 -5.5366
siesta:    5    -1029.1137    -1029.0547    -1029.0555  0.0028 -5.5366
siesta:    6    -1029.1137    -1029.0968    -1029.0976  0.0006 -5.5371

siesta: E_KS(eV) =            -1029.1064

siesta: Atomic forces (eV/Ang):
----------------------------------------
   Tot    0.014223    0.014224    0.014223
----------------------------------------
   Max    1.595898
   Res    1.162376    sqrt( Sum f_i^2 / 3N )
----------------------------------------
   Max    1.595898    constrained

Stress-tensor-Voigt (kbar):     -134.89     -134.89     -134.89      -44.62      -44.62      -44.62
(Free)E + p*V (eV/cell)    -1016.4463
Target enthalpy (eV/cell)    -1029.1072

siesta: Stress tensor (static) (eV/Ang**3):
        -0.084188   -0.027848   -0.027847
        -0.027848   -0.084188   -0.027847
        -0.027847   -0.027847   -0.084189

siesta: Pressure (static):        134.88634931  kBar

siesta: Stress tensor (total) (eV/Ang**3):
        -0.084188   -0.027848   -0.027847
        -0.027848   -0.084188   -0.027847
        -0.027847   -0.027847   -0.084189

siesta: Pressure (total):        134.88634931  kBar

mulliken: Mulliken Atomic and Orbital Populations:

Species: Si                  
Atom  Qatom  Qorb
               3s      3s      3py     3pz     3px     3py     3pz     3px     
               3Pdxy   3Pdyz   3Pdz2   3Pdxz   3Pdx2-y2
   1  3.984   0.667   0.566   0.197   0.197   0.197   0.548   0.548   0.548
              0.123   0.123   0.074   0.123   0.074
   2  3.986   0.610   0.592   0.178   0.178   0.178   0.569   0.569   0.569
              0.131   0.131   0.077   0.131   0.077
   3  4.009   0.502   0.645   0.171   0.081   0.171   0.592   0.651   0.592
              0.138   0.143   0.099   0.143   0.082
   4  4.001   0.523   0.635   0.167   0.104   0.167   0.592   0.631   0.592
              0.136   0.138   0.094   0.138   0.084
   5  4.009   0.502   0.645   0.081   0.171   0.171   0.651   0.592   0.592
              0.143   0.143   0.086   0.138   0.095
   6  4.001   0.523   0.635   0.104   0.167   0.167   0.631   0.592   0.592
              0.138   0.138   0.086   0.136   0.091
   7  4.009   0.502   0.645   0.171   0.171   0.081   0.592   0.592   0.651
              0.143   0.138   0.086   0.143   0.095
   8  4.001   0.523   0.635   0.167   0.167   0.104   0.592   0.592   0.631
              0.138   0.136   0.086   0.138   0.091

mulliken: Qtot =       32.000

cgvc: Finished line minimization    1.  Mean atomic displacement =    0.1650

* Maximum dynamic memory allocated =    93 MB

siesta:                 ==============================
                            Begin CG move =      7
                        ==============================

outcoor: Atomic coordinates (Ang):                          
    0.12320398    0.12320397    0.12320439   1       1  Si
    1.47962520    1.47962511    1.47962480   1       2  Si
    2.83422733    2.83422723    0.11382380   1       3  Si
    4.13137424    4.13137433    1.50445334   1       4  Si
    2.83422741    0.11382455    2.83422726   1       5  Si
    4.13137396    1.50445359    4.13137447   1       6  Si
    0.11382464    2.83422726    2.83422738   1       7  Si
    1.50445376    4.13137384    4.13137441   1       8  Si
 Kpoints in:          108 . Kpoints trimmed:          108

siesta: k-grid: Number of k-points =   108
siesta: k-grid: Cutoff (effective) =    16.281 Ang
siesta: k-grid: Supercell and displacements
siesta: k-grid:    6   0   0      0.500
siesta: k-grid:    0   6   0      0.500
siesta: k-grid:    0   0   6      0.500
Naive supercell factors:     5    5    5

superc: Internal auxiliary supercell:     5 x     5 x     5  =     125
superc: Number of atoms, orbitals, and projectors:   1000  13000  16000

outcell: Unit cell vectors (Ang):
        5.425672   -0.085321   -0.085321
       -0.085321    5.425672   -0.085321
       -0.085321   -0.085321    5.425672

outcell: Cell vector modules (Ang)   :    5.427014    5.427014    5.427014
outcell: Cell angles (23,13,12) (deg):     91.7872     91.7872     91.7872
outcell: Cell volume (Ang**3)        :    159.6008
New_DM. Step:     8
Re-using DM from previous geometry...
Re-using DM without extrapolation (not allowed)
Density Matrix sparsity pattern changed.

InitMesh: MESH =    36 x    36 x    36 =       46656
InitMesh: Mesh cutoff (required, used) =   100.000   121.859 Ry

siesta: iscf   Eharris(eV)      E_KS(eV)   FreeEng(eV)   dDmax  Ef(eV)
siesta:    1    -1030.3453    -1027.9831    -1027.9839  0.0746 -5.2255
siesta:    2    -1030.5813    -1030.1040    -1030.1040  0.0868 -5.1927
siesta:    3    -1030.2643    -1029.8785    -1029.8785  0.0143 -5.2270
siesta:    4    -1030.2630    -1030.2041    -1030.2042  0.0020 -5.2300
siesta:    5    -1030.2629    -1030.2226    -1030.2227  0.0013 -5.2297
siesta:    6    -1030.2628    -1030.2448    -1030.2448  0.0005 -5.2293

siesta: E_KS(eV) =            -1030.2531

siesta: Atomic forces (eV/Ang):
----------------------------------------
   Tot    0.011612    0.011620    0.011624
----------------------------------------
   Max    0.797122
   Res    0.461180    sqrt( Sum f_i^2 / 3N )
----------------------------------------
   Max    0.797122    constrained

Stress-tensor-Voigt (kbar):      -50.43      -50.43      -50.43      -25.97      -25.97      -25.97
(Free)E + p*V (eV/cell)    -1025.2299
Target enthalpy (eV/cell)    -1030.2531

siesta: Stress tensor (static) (eV/Ang**3):
        -0.031473   -0.016208   -0.016208
        -0.016208   -0.031473   -0.016208
        -0.016208   -0.016208   -0.031474

siesta: Pressure (static):         50.42662097  kBar

siesta: Stress tensor (total) (eV/Ang**3):
        -0.031473   -0.016208   -0.016208
        -0.016208   -0.031473   -0.016208
        -0.016208   -0.016208   -0.031474

siesta: Pressure (total):         50.42662097  kBar

mulliken: Mulliken Atomic and Orbital Populations:

Species: Si                  
Atom  Qatom  Qorb
               3s      3s      3py     3pz     3px     3py     3pz     3px     
               3Pdxy   3Pdyz   3Pdz2   3Pdxz   3Pdx2-y2
   1  3.997   0.692   0.547   0.243   0.243   0.243   0.514   0.514   0.514
              0.116   0.116   0.068   0.116   0.068
   2  4.004   0.602   0.591   0.207   0.207   0.207   0.552   0.552   0.552
              0.127   0.127   0.076   0.127   0.076
   3  4.003   0.567   0.609   0.210   0.162   0.210   0.554   0.585   0.554
              0.127   0.132   0.085   0.132   0.075
   4  3.997   0.598   0.594   0.206   0.195   0.206   0.553   0.558   0.553
              0.126   0.126   0.078   0.126   0.077
   5  4.003   0.567   0.609   0.162   0.210   0.210   0.585   0.554   0.554
              0.132   0.132   0.078   0.127   0.082
   6  3.997   0.598   0.594   0.195   0.206   0.206   0.558   0.553   0.553
              0.126   0.126   0.077   0.126   0.078
   7  4.003   0.567   0.609   0.210   0.210   0.162   0.554   0.554   0.585
              0.132   0.127   0.078   0.132   0.082
   8  3.997   0.598   0.594   0.206   0.206   0.195   0.553   0.553   0.558
              0.126   0.126   0.077   0.126   0.078

mulliken: Qtot =       32.000

* Maximum dynamic memory allocated =    93 MB

siesta:                 ==============================
                            Begin CG move =      8
                        ==============================

outcoor: Atomic coordinates (Ang):                          
    0.11151717    0.11151720    0.11151745   1       1  Si
    1.54426147    1.54426126    1.54426110   1       2  Si
    2.85903852    2.85903830    0.19548636   1       3  Si
    4.25859862    4.25859901    1.52046971   1       4  Si
    2.85903851    0.19548817    2.85903832   1       5  Si
    4.25859761    1.52046975    4.25859906   1       6  Si
    0.19548849    2.85903841    2.85903829   1       7  Si
    1.52047022    4.25859765    4.25859888   1       8  Si
 Kpoints in:          108 . Kpoints trimmed:          108

siesta: k-grid: Number of k-points =   108
siesta: k-grid: Cutoff (effective) =    16.597 Ang
siesta: k-grid: Supercell and displacements
siesta: k-grid:    0   6   0      0.500
siesta: k-grid:    6   0   0      0.500
siesta: k-grid:    0   0   6      0.500
Naive supercell factors:     5    5    5

superc: Internal auxiliary supercell:     5 x     5 x     5  =     125
superc: Number of atoms, orbitals, and projectors:   1000  13000  16000

outcell: Unit cell vectors (Ang):
        5.531507   -0.068650   -0.068651
       -0.068650    5.531507   -0.068651
       -0.068651   -0.068651    5.531508

outcell: Cell vector modules (Ang)   :    5.532359    5.532359    5.532360
outcell: Cell angles (23,13,12) (deg):     91.4131     91.4131     91.4131
outcell: Cell volume (Ang**3)        :    169.1719
New_DM. Step:     9
Re-using DM from previous geometry...
Re-using DM without extrapolation (not allowed)
Density Matrix sparsity pattern changed.

InitMesh: MESH =    36 x    36 x    36 =       46656
InitMesh: Mesh cutoff (required, used) =   100.000   117.173 Ry

siesta: iscf   Eharris(eV)      E_KS(eV)   FreeEng(eV)   dDmax  Ef(eV)
siesta:    1    -1030.3997    -1028.6347    -1028.6347  0.0544 -4.9561
siesta:    2    -1030.6938    -1030.1027    -1030.1027  0.1024 -5.0097
siesta:    3    -1030.2991    -1029.8519    -1029.8519  0.0167 -4.9823
siesta:    4    -1030.2985    -1030.2308    -1030.2308  0.0030 -4.9851
siesta:    5    -1030.2983    -1030.2554    -1030.2554  0.0017 -4.9850
siesta:    6    -1030.2983    -1030.2773    -1030.2773  0.0006 -4.9847

siesta: E_KS(eV) =            -1030.2862

siesta: Atomic forces (eV/Ang):
----------------------------------------
   Tot   -0.013613   -0.013613   -0.013633
----------------------------------------
   Max    1.088096
   Res    0.696591    sqrt( Sum f_i^2 / 3N )
----------------------------------------
   Max    1.088096    constrained

Stress-tensor-Voigt (kbar):        3.60        3.60        3.60       -9.25       -9.25       -9.25
(Free)E + p*V (eV/cell)    -1030.6660
Target enthalpy (eV/cell)    -1030.2862

siesta: Stress tensor (static) (eV/Ang**3):
         0.002245   -0.005776   -0.005776
        -0.005776    0.002245   -0.005776
        -0.005776   -0.005776    0.002245

siesta: Pressure (static):         -3.59726325  kBar

siesta: Stress tensor (total) (eV/Ang**3):
         0.002245   -0.005776   -0.005776
        -0.005776    0.002245   -0.005776
        -0.005776   -0.005776    0.002245

siesta: Pressure (total):         -3.59726325  kBar

mulliken: Mulliken Atomic and Orbital Populations:

Species: Si                  
Atom  Qatom  Qorb
               3s      3s      3py     3pz     3px     3py     3pz     3px     
               3Pdxy   3Pdyz   3Pdz2   3Pdxz   3Pdx2-y2
   1  4.001   0.699   0.545   0.275   0.275   0.275   0.488   0.488   0.488
              0.112   0.112   0.065   0.112   0.065
   2  4.019   0.573   0.605   0.228   0.228   0.228   0.541   0.541   0.541
              0.126   0.126   0.078   0.126   0.078
   3  3.996   0.626   0.579   0.249   0.223   0.249   0.517   0.533   0.517
              0.118   0.121   0.074   0.121   0.070
   4  3.997   0.671   0.558   0.251   0.280   0.251   0.509   0.486   0.509
              0.118   0.114   0.066   0.114   0.070
   5  3.996   0.626   0.579   0.223   0.249   0.249   0.533   0.517   0.517
              0.121   0.121   0.071   0.118   0.073
   6  3.997   0.671   0.558   0.280   0.251   0.251   0.486   0.509   0.509
              0.114   0.114   0.069   0.118   0.067
   7  3.996   0.626   0.579   0.249   0.249   0.223   0.517   0.517   0.533
              0.121   0.118   0.071   0.121   0.073
   8  3.997   0.671   0.558   0.251   0.251   0.280   0.509   0.509   0.486
              0.114   0.118   0.069   0.114   0.067

mulliken: Qtot =       32.000

* Maximum dynamic memory allocated =    93 MB

siesta:                 ==============================
                            Begin CG move =      9
                        ==============================

outcoor: Atomic coordinates (Ang):                          
    0.11693848    0.11693849    0.11693883   1       1  Si
    1.51464407    1.51464392    1.51464369   1       2  Si
    2.84791155    2.84791138    0.15805406   1       3  Si
    4.20050730    4.20050756    1.51332685   1       4  Si
    2.84791157    0.15805538    2.84791140   1       5  Si
    4.20050663    1.51332698    4.20050765   1       6  Si
    0.15805560    2.84791145    2.84791144   1       7  Si
    1.51332732    4.20050659    4.20050752   1       8  Si
 Kpoints in:          108 . Kpoints trimmed:          108

siesta: k-grid: Number of k-points =   108
siesta: k-grid: Cutoff (effective) =    16.453 Ang
siesta: k-grid: Supercell and displacements
siesta: k-grid:    0   6   0      0.500
siesta: k-grid:    6   0   0      0.500
siesta: k-grid:    0   0   6      0.500
Naive supercell factors:     5    5    5

superc: Internal auxiliary supercell:     5 x     5 x     5  =     125
superc: Number of atoms, orbitals, and projectors:   1000  13000  16000

outcell: Unit cell vectors (Ang):
        5.483279   -0.076247   -0.076247
       -0.076247    5.483279   -0.076247
       -0.076247   -0.076247    5.483279

outcell: Cell vector modules (Ang)   :    5.484339    5.484339    5.484339
outcell: Cell angles (23,13,12) (deg):     91.5820     91.5820     91.5819
outcell: Cell volume (Ang**3)        :    164.7656
New_DM. Step:    10
Re-using DM from previous geometry...
Re-using DM without extrapolation (not allowed)
Density Matrix sparsity pattern changed.

InitMesh: MESH =    36 x    36 x    36 =       46656
InitMesh: Mesh cutoff (required, used) =   100.000   119.272 Ry

siesta: iscf   Eharris(eV)      E_KS(eV)   FreeEng(eV)   dDmax  Ef(eV)
siesta:    1    -1030.4277    -1031.0395    -1031.0395  0.0380 -5.0725
siesta:    2    -1030.4836    -1030.3702    -1030.3702  0.0415 -5.0780
siesta:    3    -1030.4084    -1030.5118    -1030.5118  0.0066 -5.0712
siesta:    4    -1030.4082    -1030.3964    -1030.3965  0.0013 -5.0691
siesta:    5    -1030.4081    -1030.3992    -1030.3992  0.0008 -5.0692

siesta: E_KS(eV) =            -1030.4052

siesta: Atomic forces (eV/Ang):
----------------------------------------
   Tot    0.002648    0.002642    0.002626
----------------------------------------
   Max    0.769306
   Res    0.464325    sqrt( Sum f_i^2 / 3N )
----------------------------------------
   Max    0.769306    constrained

Stress-tensor-Voigt (kbar):      -17.39      -17.39      -17.39      -16.61      -16.61      -16.61
(Free)E + p*V (eV/cell)    -1028.6168
Target enthalpy (eV/cell)    -1030.4052

siesta: Stress tensor (static) (eV/Ang**3):
        -0.010854   -0.010368   -0.010368
        -0.010368   -0.010854   -0.010368
        -0.010368   -0.010368   -0.010854

siesta: Pressure (static):         17.39067450  kBar

siesta: Stress tensor (total) (eV/Ang**3):
        -0.010854   -0.010368   -0.010368
        -0.010368   -0.010854   -0.010368
        -0.010368   -0.010368   -0.010854

siesta: Pressure (total):         17.39067450  kBar

mulliken: Mulliken Atomic and Orbital Populations:

Species: Si                  
Atom  Qatom  Qorb
               3s      3s      3py     3pz     3px     3py     3pz     3px     
               3Pdxy   3Pdyz   3Pdz2   3Pdxz   3Pdx2-y2
   1  3.996   0.697   0.544   0.259   0.259   0.259   0.502   0.502   0.502
              0.113   0.113   0.067   0.113   0.067
   2  4.011   0.589   0.597   0.217   0.217   0.217   0.548   0.548   0.548
              0.126   0.126   0.076   0.126   0.076
   3  4.003   0.601   0.592   0.232   0.201   0.232   0.534   0.553   0.534
              0.122   0.126   0.078   0.126   0.072
   4  3.995   0.636   0.575   0.230   0.244   0.230   0.530   0.517   0.530
              0.122   0.119   0.071   0.119   0.073
   5  4.003   0.601   0.592   0.201   0.232   0.232   0.553   0.534   0.534
              0.126   0.126   0.074   0.122   0.077
   6  3.995   0.636   0.575   0.244   0.230   0.230   0.517   0.530   0.530
              0.119   0.119   0.072   0.122   0.071
   7  4.003   0.601   0.592   0.232   0.232   0.201   0.534   0.534   0.553
              0.126   0.122   0.074   0.126   0.077
   8  3.995   0.636   0.575   0.230   0.230   0.244   0.530   0.530   0.517
              0.119   0.122   0.072   0.119   0.071

mulliken: Qtot =       32.000

cgvc: Finished line minimization    2.  Mean atomic displacement =    0.2547

* Maximum dynamic memory allocated =    93 MB

siesta:                 ==============================
                            Begin CG move =     10
                        ==============================

outcoor: Atomic coordinates (Ang):                          
    0.15099581    0.15099467    0.15099411   1       1  Si
    1.45656905    1.45656838    1.45656715   1       2  Si
    2.98812105    2.98812115    0.15388098   1       3  Si
    4.40381382    4.40381260    1.52865364   1       4  Si
    2.98812011    0.15387917    2.98812177   1       5  Si
    4.40381550    1.52865388    4.40381210   1       6  Si
    0.15387829    2.98812069    2.98812151   1       7  Si
    1.52865342    4.40381522    4.40381287   1       8  Si
 Kpoints in:          108 . Kpoints trimmed:          108

siesta: k-grid: Number of k-points =   108
siesta: k-grid: Cutoff (effective) =    16.737 Ang
siesta: k-grid: Supercell and displacements
siesta: k-grid:    6   0   0      0.500
siesta: k-grid:    0   6   0      0.500
siesta: k-grid:    0   0   6      0.500
Naive supercell factors:     5    5    5

superc: Internal auxiliary supercell:     5 x     5 x     5  =     125
superc: Number of atoms, orbitals, and projectors:   1000  13000  16000

outcell: Unit cell vectors (Ang):
        5.579085   -0.020975   -0.020975
       -0.020975    5.579085   -0.020974
       -0.020975   -0.020974    5.579085

outcell: Cell vector modules (Ang)   :    5.579164    5.579164    5.579164
outcell: Cell angles (23,13,12) (deg):     90.4300     90.4300     90.4300
outcell: Cell volume (Ang**3)        :    173.6483
New_DM. Step:    11
Re-using DM from previous geometry...
Re-using DM without extrapolation (not allowed)
Density Matrix sparsity pattern changed.

InitMesh: MESH =    36 x    36 x    36 =       46656
InitMesh: Mesh cutoff (required, used) =   100.000   115.085 Ry

siesta: iscf   Eharris(eV)      E_KS(eV)   FreeEng(eV)   dDmax  Ef(eV)
siesta:    1    -1030.8902    -1028.6691    -1028.6691  0.0587 -4.9761
siesta:    2    -1033.4695    -1028.6285    -1028.6285  0.3339 -5.1402
siesta:    3    -1030.1521    -1029.1113    -1029.1113  0.0618 -5.0239
siesta:    4    -1030.1514    -1029.6994    -1029.6994  0.0232 -5.0284
siesta:    5    -1030.1498    -1029.9967    -1029.9967  0.0036 -5.0274
siesta:    6    -1030.1497    -1030.0564    -1030.0564  0.0020 -5.0268
siesta:    7    -1030.1497    -1030.1268    -1030.1268  0.0005 -5.0264

siesta: E_KS(eV) =            -1030.1448

siesta: Atomic forces (eV/Ang):
----------------------------------------
   Tot    0.003602    0.003607    0.003596
----------------------------------------
   Max    1.705305
   Res    0.832706    sqrt( Sum f_i^2 / 3N )
----------------------------------------
   Max    1.705305    constrained

Stress-tensor-Voigt (kbar):       19.46       19.46       19.46       -8.37       -8.37       -8.37
(Free)E + p*V (eV/cell)    -1032.2542
Target enthalpy (eV/cell)    -1030.1448

siesta: Stress tensor (static) (eV/Ang**3):
         0.012147   -0.005225   -0.005225
        -0.005225    0.012147   -0.005225
        -0.005225   -0.005225    0.012147

siesta: Pressure (static):        -19.46251377  kBar

siesta: Stress tensor (total) (eV/Ang**3):
         0.012147   -0.005225   -0.005225
        -0.005225    0.012147   -0.005225
        -0.005225   -0.005225    0.012147

siesta: Pressure (total):        -19.46251377  kBar

mulliken: Mulliken Atomic and Orbital Populations:

Species: Si                  
Atom  Qatom  Qorb
               3s      3s      3py     3pz     3px     3py     3pz     3px     
               3Pdxy   3Pdyz   3Pdz2   3Pdxz   3Pdx2-y2
   1  4.026   0.518   0.637   0.213   0.213   0.213   0.557   0.557   0.557
              0.131   0.131   0.083   0.131   0.083
   2  4.002   0.718   0.534   0.289   0.289   0.289   0.477   0.477   0.477
              0.108   0.108   0.063   0.108   0.063
   3  3.998   0.715   0.536   0.270   0.335   0.270   0.489   0.443   0.489
              0.116   0.106   0.057   0.106   0.067
   4  3.993   0.643   0.571   0.261   0.243   0.261   0.505   0.518   0.505
              0.114   0.117   0.071   0.117   0.066
   5  3.998   0.715   0.536   0.335   0.270   0.270   0.443   0.489   0.489
              0.106   0.106   0.065   0.116   0.060
   6  3.993   0.643   0.571   0.243   0.261   0.261   0.518   0.505   0.505
              0.117   0.117   0.067   0.114   0.070
   7  3.998   0.715   0.536   0.270   0.270   0.335   0.489   0.489   0.443
              0.106   0.116   0.065   0.106   0.060
   8  3.993   0.643   0.571   0.261   0.261   0.243   0.505   0.505   0.518
              0.117   0.114   0.067   0.117   0.070

mulliken: Qtot =       32.000

* Maximum dynamic memory allocated =    93 MB

siesta:                 ==============================
                            Begin CG move =     11
                        ==============================

outcoor: Atomic coordinates (Ang):                          
    0.12987696    0.12987652    0.12987651   1       1  Si
    1.49316813    1.49316778    1.49316716   1       2  Si
    2.90203506    2.90203500    0.15643321   1       3  Si
    4.27909437    4.27909405    1.51934743   1       4  Si
    2.90203472    0.15643333    2.90203526   1       5  Si
    4.27909460    1.51934760    4.27909391   1       6  Si
    0.15643313    2.90203487    2.90203518   1       7  Si
    1.51934763    4.27909447    4.27909413   1       8  Si
 Kpoints in:          108 . Kpoints trimmed:          108

siesta: k-grid: Number of k-points =   108
siesta: k-grid: Cutoff (effective) =    16.563 Ang
siesta: k-grid: Supercell and displacements
siesta: k-grid:    6   0   0      0.500
siesta: k-grid:    0   6   0      0.500
siesta: k-grid:    0   0   6      0.500
Naive supercell factors:     5    5    5

superc: Internal auxiliary supercell:     5 x     5 x     5  =     125
superc: Number of atoms, orbitals, and projectors:   1000  13000  16000

outcell: Unit cell vectors (Ang):
        5.520410   -0.054825   -0.054825
       -0.054825    5.520410   -0.054825
       -0.054825   -0.054825    5.520411

outcell: Cell vector modules (Ang)   :    5.520955    5.520955    5.520955
outcell: Cell angles (23,13,12) (deg):     91.1322     91.1322     91.1322
outcell: Cell volume (Ang**3)        :    168.1840
New_DM. Step:    12
Re-using DM from previous geometry...
Re-using DM without extrapolation (not allowed)
Density Matrix sparsity pattern changed.

InitMesh: MESH =    36 x    36 x    36 =       46656
InitMesh: Mesh cutoff (required, used) =   100.000   117.605 Ry

siesta: iscf   Eharris(eV)      E_KS(eV)   FreeEng(eV)   dDmax  Ef(eV)
siesta:    1    -1030.8657    -1031.0905    -1031.0905  0.0353 -5.0240
siesta:    2    -1031.7192    -1030.0644    -1030.0644  0.1446 -5.0545
siesta:    3    -1030.6056    -1030.6627    -1030.6627  0.0331 -5.0040
siesta:    4    -1030.6053    -1030.5453    -1030.5453  0.0051 -4.9977
siesta:    5    -1030.6052    -1030.5511    -1030.5511  0.0021 -4.9972
siesta:    6    -1030.6052    -1030.5774    -1030.5774  0.0009 -4.9976

siesta: E_KS(eV) =            -1030.5973

siesta: Atomic forces (eV/Ang):
----------------------------------------
   Tot   -0.007601   -0.007598   -0.007579
----------------------------------------
   Max    0.160864
   Res    0.096979    sqrt( Sum f_i^2 / 3N )
----------------------------------------
   Max    0.160864    constrained

Stress-tensor-Voigt (kbar):        1.28        1.28        1.28      -13.27      -13.27      -13.27
(Free)E + p*V (eV/cell)    -1030.7315
Target enthalpy (eV/cell)    -1030.5973

siesta: Stress tensor (static) (eV/Ang**3):
         0.000798   -0.008281   -0.008281
        -0.008281    0.000798   -0.008281
        -0.008281   -0.008281    0.000798

siesta: Pressure (static):         -1.27853979  kBar

siesta: Stress tensor (total) (eV/Ang**3):
         0.000798   -0.008281   -0.008281
        -0.008281    0.000798   -0.008281
        -0.008281   -0.008281    0.000798

siesta: Pressure (total):         -1.27853979  kBar

mulliken: Mulliken Atomic and Orbital Populations:

Species: Si                  
Atom  Qatom  Qorb
               3s      3s      3py     3pz     3px     3py     3pz     3px     
               3Pdxy   3Pdyz   3Pdz2   3Pdxz   3Pdx2-y2
   1  4.005   0.633   0.576   0.242   0.242   0.242   0.522   0.522   0.522
              0.120   0.120   0.072   0.120   0.072
   2  3.995   0.639   0.572   0.241   0.241   0.241   0.520   0.520   0.520
              0.119   0.119   0.070   0.119   0.070
   3  3.998   0.646   0.569   0.244   0.250   0.244   0.519   0.515   0.519
              0.119   0.118   0.069   0.118   0.070
   4  4.002   0.642   0.571   0.248   0.248   0.248   0.517   0.516   0.517
              0.119   0.118   0.070   0.118   0.070
   5  3.998   0.646   0.569   0.250   0.244   0.244   0.515   0.519   0.519
              0.118   0.118   0.070   0.119   0.069
   6  4.002   0.642   0.571   0.248   0.248   0.248   0.516   0.517   0.517
              0.118   0.118   0.070   0.119   0.070
   7  3.998   0.646   0.569   0.244   0.244   0.250   0.519   0.519   0.515
              0.118   0.119   0.070   0.118   0.069
   8  4.002   0.642   0.571   0.248   0.248   0.248   0.517   0.517   0.516
              0.118   0.119   0.070   0.118   0.070

mulliken: Qtot =       32.000

cgvc: Finished line minimization    3.  Mean atomic displacement =    0.0987

* Maximum dynamic memory allocated =    93 MB

siesta:                 ==============================
                            Begin CG move =     12
                        ==============================

outcoor: Atomic coordinates (Ang):                          
    0.15744416    0.15744490    0.15744593   1       1  Si
    1.55506657    1.55506696    1.55506938   1       2  Si
    2.96025038    2.96025000    0.19979277   1       3  Si
    4.32890863    4.32890928    1.60046316   1       4  Si
    2.96025085    0.19979510    2.96024943   1       5  Si
    4.32890686    1.60046347    4.32891034   1       6  Si
    0.19979594    2.96024998    2.96024921   1       7  Si
    1.60046382    4.32890674    4.32890959   1       8  Si
 Kpoints in:          108 . Kpoints trimmed:          108

siesta: k-grid: Number of k-points =   108
siesta: k-grid: Cutoff (effective) =    16.579 Ang
siesta: k-grid: Supercell and displacements
siesta: k-grid:    6   0   0      0.500
siesta: k-grid:    0   0   6      0.500
siesta: k-grid:    0   6   0      0.500
Naive supercell factors:     5    5    5

superc: Internal auxiliary supercell:     5 x     5 x     5  =     125
superc: Number of atoms, orbitals, and projectors:   1000  13000  16000

outcell: Unit cell vectors (Ang):
        5.526307    0.008369    0.008369
        0.008369    5.526307    0.008368
        0.008369    0.008368    5.526307

outcell: Cell vector modules (Ang)   :    5.526319    5.526320    5.526319
outcell: Cell angles (23,13,12) (deg):     89.8263     89.8263     89.8263
outcell: Cell volume (Ang**3)        :    168.7726
New_DM. Step:    13
Re-using DM from previous geometry...
Re-using DM without extrapolation (not allowed)
Density Matrix sparsity pattern changed.

InitMesh: MESH =    36 x    36 x    36 =       46656
InitMesh: Mesh cutoff (required, used) =   100.000   117.285 Ry

siesta: iscf   Eharris(eV)      E_KS(eV)   FreeEng(eV)   dDmax  Ef(eV)
siesta:    1    -1030.6744    -1030.4920    -1030.4920  0.0193 -5.0045
siesta:    2    -1030.7269    -1030.6226    -1030.6226  0.0289 -5.0186
siesta:    3    -1030.6570    -1030.6106    -1030.6106  0.0047 -5.0070
siesta:    4    -1030.6568    -1030.6445    -1030.6445  0.0004 -5.0066

siesta: E_KS(eV) =            -1030.6484

siesta: Atomic forces (eV/Ang):
----------------------------------------
   Tot   -0.002445   -0.002457   -0.002446
----------------------------------------
   Max    0.163380
   Res    0.128613    sqrt( Sum f_i^2 / 3N )
----------------------------------------
   Max    0.163380    constrained

Stress-tensor-Voigt (kbar):        3.23        3.23        3.23        2.20        2.20        2.20
(Free)E + p*V (eV/cell)    -1030.9886
Target enthalpy (eV/cell)    -1030.6484

siesta: Stress tensor (static) (eV/Ang**3):
         0.002016    0.001372    0.001371
         0.001372    0.002016    0.001371
         0.001371    0.001371    0.002016

siesta: Pressure (static):         -3.23001771  kBar

siesta: Stress tensor (total) (eV/Ang**3):
         0.002016    0.001372    0.001371
         0.001372    0.002016    0.001371
         0.001371    0.001371    0.002016

siesta: Pressure (total):         -3.23001771  kBar

mulliken: Mulliken Atomic and Orbital Populations:

Species: Si                  
Atom  Qatom  Qorb
               3s      3s      3py     3pz     3px     3py     3pz     3px     
               3Pdxy   3Pdyz   3Pdz2   3Pdxz   3Pdx2-y2
   1  4.001   0.660   0.562   0.255   0.255   0.255   0.510   0.510   0.510
              0.116   0.116   0.068   0.116   0.068
   2  3.999   0.667   0.558   0.256   0.256   0.256   0.509   0.509   0.509
              0.115   0.115   0.067   0.115   0.067
   3  4.000   0.638   0.572   0.249   0.244   0.249   0.516   0.520   0.516
              0.118   0.119   0.071   0.119   0.069
   4  4.000   0.638   0.572   0.247   0.237   0.247   0.519   0.525   0.519
              0.118   0.119   0.071   0.119   0.069
   5  4.000   0.638   0.572   0.244   0.249   0.249   0.520   0.516   0.516
              0.119   0.119   0.070   0.118   0.070
   6  4.000   0.638   0.572   0.237   0.247   0.247   0.525   0.519   0.519
              0.119   0.119   0.070   0.118   0.071
   7  4.000   0.638   0.572   0.249   0.249   0.244   0.516   0.516   0.520
              0.119   0.118   0.070   0.119   0.070
   8  4.000   0.638   0.572   0.247   0.247   0.237   0.519   0.519   0.525
              0.119   0.118   0.070   0.119   0.071

mulliken: Qtot =       32.000

* Maximum dynamic memory allocated =    93 MB

siesta:                 ==============================
                            Begin CG move =     13
                        ==============================

outcoor: Atomic coordinates (Ang):                          
    0.15072172    0.15072219    0.15072297   1       1  Si
    1.54010013    1.54010034    1.54010204   1       2  Si
    2.94628523    2.94628493    0.18931149   1       3  Si
    4.31704636    4.31704678    1.58109397   1       4  Si
    2.94628550    0.18931329    2.94628455   1       5  Si
    4.31704507    1.58109425    4.31704756   1       6  Si
    0.18931388    2.94628487    2.94628436   1       7  Si
    1.58109452    4.31704495    4.31704704   1       8  Si
 Kpoints in:          108 . Kpoints trimmed:          108

siesta: k-grid: Number of k-points =   108
siesta: k-grid: Cutoff (effective) =    16.575 Ang
siesta: k-grid: Supercell and displacements
siesta: k-grid:    6   0   0      0.500
siesta: k-grid:    0   0   6      0.500
siesta: k-grid:    0   6   0      0.500
Naive supercell factors:     5    5    5

superc: Internal auxiliary supercell:     5 x     5 x     5  =     125
superc: Number of atoms, orbitals, and projectors:   1000  13000  16000

outcell: Unit cell vectors (Ang):
        5.524892   -0.006798   -0.006798
       -0.006798    5.524892   -0.006798
       -0.006798   -0.006798    5.524892

outcell: Cell vector modules (Ang)   :    5.524900    5.524900    5.524900
outcell: Cell angles (23,13,12) (deg):     90.1409     90.1409     90.1409
outcell: Cell volume (Ang**3)        :    168.6434
New_DM. Step:    14
Re-using DM from previous geometry...
Re-using DM without extrapolation (not allowed)
Density Matrix sparsity pattern changed.

InitMesh: MESH =    36 x    36 x    36 =       46656
InitMesh: Mesh cutoff (required, used) =   100.000   117.345 Ry

siesta: iscf   Eharris(eV)      E_KS(eV)   FreeEng(eV)   dDmax  Ef(eV)
siesta:    1    -1030.6619    -1030.6690    -1030.6690  0.0030 -5.0015
siesta:    2    -1030.6648    -1030.6590    -1030.6590  0.0071 -4.9913
siesta:    3    -1030.6610    -1030.6616    -1030.6616  0.0010 -4.9920

siesta: E_KS(eV) =            -1030.6602

siesta: Atomic forces (eV/Ang):
----------------------------------------
   Tot   -0.001651   -0.001650   -0.001650
----------------------------------------
   Max    0.160423
   Res    0.096346    sqrt( Sum f_i^2 / 3N )
----------------------------------------
   Max    0.160423    constrained

Stress-tensor-Voigt (kbar):        2.97        2.97        2.97       -1.18       -1.18       -1.18
(Free)E + p*V (eV/cell)    -1030.9731
Target enthalpy (eV/cell)    -1030.6602

siesta: Stress tensor (static) (eV/Ang**3):
         0.001855   -0.000734   -0.000735
        -0.000734    0.001855   -0.000735
        -0.000735   -0.000735    0.001855

siesta: Pressure (static):         -2.97248611  kBar

siesta: Stress tensor (total) (eV/Ang**3):
         0.001855   -0.000734   -0.000735
        -0.000734    0.001855   -0.000735
        -0.000735   -0.000735    0.001855

siesta: Pressure (total):         -2.97248611  kBar

mulliken: Mulliken Atomic and Orbital Populations:

Species: Si                  
Atom  Qatom  Qorb
               3s      3s      3py     3pz     3px     3py     3pz     3px     
               3Pdxy   3Pdyz   3Pdz2   3Pdxz   3Pdx2-y2
   1  4.003   0.654   0.565   0.252   0.252   0.252   0.513   0.513   0.513
              0.117   0.117   0.069   0.117   0.069
   2  3.998   0.661   0.561   0.253   0.253   0.253   0.511   0.511   0.511
              0.116   0.116   0.068   0.116   0.068
   3  3.999   0.640   0.572   0.248   0.245   0.248   0.517   0.519   0.517
              0.118   0.118   0.070   0.118   0.069
   4  4.001   0.639   0.572   0.246   0.239   0.246   0.519   0.524   0.519
              0.118   0.119   0.071   0.119   0.069
   5  3.999   0.640   0.572   0.245   0.248   0.248   0.519   0.517   0.517
              0.118   0.118   0.070   0.118   0.070
   6  4.001   0.639   0.572   0.239   0.246   0.246   0.524   0.519   0.519
              0.119   0.119   0.070   0.118   0.071
   7  3.999   0.640   0.572   0.248   0.248   0.245   0.517   0.517   0.519
              0.118   0.118   0.070   0.118   0.070
   8  4.001   0.639   0.572   0.246   0.246   0.239   0.519   0.519   0.524
              0.119   0.118   0.070   0.119   0.071

mulliken: Qtot =       32.000

cgvc: Finished line minimization    4.  Mean atomic displacement =    0.0750

* Maximum dynamic memory allocated =    93 MB

siesta:                 ==============================
                            Begin CG move =     14
                        ==============================

outcoor: Atomic coordinates (Ang):                          
    0.19640214    0.19640167    0.19640322   1       1  Si
    1.56998073    1.56997987    1.56997725   1       2  Si
    2.94930006    2.94930087    0.23060879   1       3  Si
    4.34418955    4.34418823    1.59512284   1       4  Si
    2.94930090    0.23060055    2.94930582   1       5  Si
[...]
         76.20  86.89  94.19  95.27
  93  1 -16.07 -15.42 -14.30 -13.96 -12.13 -11.75 -10.35  -9.49  -9.35  -9.19
         -8.19  -7.95  -7.76  -7.51  -7.27  -6.37  -3.21  -3.17  -2.76  -2.10
         -2.00  -1.60  -1.59  -0.84  -0.84  -0.63  -0.37  -0.28   0.62   0.69
          1.27   2.05   2.08   2.09   2.72   3.56   4.04   4.04   4.68   5.70
          5.82   5.86   7.72   7.86   8.35   8.49   9.03   9.41   9.52  10.26
         10.59  11.03  11.12  11.36  11.47  11.79  12.12  12.42  13.05  13.34
         14.05  14.24  14.49  14.53  14.70  15.54  15.90  16.18  16.42  17.07
         17.67  17.77  18.65  18.82  19.45  20.65  21.75  22.30  22.71  23.15
         23.31  23.64  24.62  24.99  26.15  26.37  31.68  36.23  37.58  39.72
         41.53  50.30  52.31  53.58  55.46  64.23  64.51  64.52  66.79  70.91
         76.18  86.89  94.18  95.26
  94  1 -15.87 -15.25 -14.37 -14.37 -12.02 -12.02 -11.00 -10.20  -8.78  -8.78
         -7.79  -7.49  -7.49  -7.19  -6.69  -6.67  -3.32  -3.19  -2.96  -2.96
         -2.08  -1.43  -1.42  -1.28  -1.21  -0.47  -0.24   0.49   0.49   0.69
          0.93   0.93   2.91   2.91   3.30   3.41   5.01   5.12   5.16   5.49
          5.51   5.51   6.51   6.51   7.30   8.33   8.95   9.18   9.18   9.22
          9.50   9.50  11.11  11.44  11.44  11.84  13.16  13.37  13.52  13.52
         13.59  14.61  15.02  15.02  16.10  16.10  16.36  16.48  17.22  17.39
         17.39  17.94  17.95  19.15  19.26  19.26  20.76  21.90  22.02  23.69
         24.50  24.50  25.18  27.09  27.59  27.59  31.87  32.80  35.30  35.30
         41.16  48.91  54.62  54.62  57.75  59.69  63.62  65.55  65.56  68.62
         83.89  88.12  88.16  94.32
  95  1 -15.48 -14.95 -14.95 -14.60 -12.04 -11.65 -11.65 -11.02  -8.33  -7.92
         -7.92  -7.22  -6.97  -6.93  -6.93  -6.39  -3.31  -3.19  -2.86  -2.86
         -2.09  -2.08  -1.77  -1.72  -1.30  -0.94  -0.82  -0.82   1.44   1.45
          2.20   2.41   2.60   3.24   3.60   4.06   4.06   4.43   4.43   4.78
          5.23   7.05   7.06   7.19   7.19   7.83   8.13   8.65   8.95   8.95
          9.01   9.34   9.38  10.10  10.56  10.56  13.86  14.11  14.11  15.09
         15.09  15.14  15.49  15.65  15.80  16.01  16.44  16.45  17.61  18.38
         18.38  18.41  18.94  18.94  19.38  19.69  20.48  20.48  21.12  21.57
         26.89  27.00  27.00  28.42  28.66  32.20  32.21  34.30  38.80  39.79
         39.79  45.87  54.88  54.90  58.68  59.29  60.77  73.09  73.10  78.36
         84.55  84.57  85.02 105.96
  96  1 -15.48 -14.95 -14.95 -14.60 -12.04 -11.65 -11.65 -11.02  -8.33  -7.92
         -7.92  -7.22  -6.97  -6.93  -6.93  -6.39  -3.31  -3.18  -2.86  -2.86
         -2.09  -2.09  -1.77  -1.72  -1.30  -0.94  -0.82  -0.82   1.44   1.44
          2.20   2.41   2.60   3.24   3.60   4.06   4.06   4.43   4.43   4.77
          5.23   7.06   7.06   7.19   7.19   7.83   8.13   8.65   8.95   8.95
          9.01   9.34   9.37  10.10  10.55  10.55  13.86  14.10  14.11  15.08
         15.09  15.14  15.49  15.65  15.80  16.01  16.45  16.45  17.61  18.37
         18.38  18.41  18.94  18.95  19.38  19.69  20.48  20.49  21.12  21.56
         26.90  27.00  27.01  28.42  28.67  32.21  32.22  34.29  38.81  39.79
         39.79  45.87  54.86  54.89  58.74  59.30  60.82  73.10  73.14  78.33
         84.53  84.55  85.02 106.21
  97  1 -15.48 -14.95 -14.95 -14.60 -12.03 -11.65 -11.65 -11.02  -8.33  -7.92
         -7.92  -7.22  -6.97  -6.93  -6.93  -6.39  -3.31  -3.19  -2.86  -2.86
         -2.09  -2.08  -1.77  -1.72  -1.31  -0.94  -0.82  -0.82   1.44   1.44
          2.20   2.41   2.60   3.24   3.60   4.06   4.06   4.43   4.43   4.78
          5.24   7.06   7.06   7.19   7.19   7.83   8.13   8.65   8.96   8.96
          9.00   9.34   9.37  10.10  10.55  10.55  13.86  14.10  14.10  15.08
         15.09  15.14  15.49  15.65  15.81  16.01  16.45  16.45  17.62  18.38
         18.38  18.41  18.94  18.94  19.38  19.69  20.49  20.49  21.13  21.56
         26.89  27.01  27.01  28.43  28.67  32.22  32.22  34.30  38.80  39.80
         39.81  45.85  54.91  54.94  58.71  59.30  60.80  73.11  73.11  78.34
         84.57  84.58  85.02 106.10
  98  1 -15.65 -15.05 -15.05 -14.54 -11.63 -11.02 -11.02 -10.22  -9.29  -8.81
         -8.81  -8.22  -7.09  -7.02  -7.02  -6.32  -3.30  -2.68  -2.42  -2.42
         -1.74  -1.74  -1.40  -1.16  -0.10  -0.10  -0.09   0.09   0.44   0.44
          0.71   1.23   1.74   2.15   2.48   2.74   2.74   4.25   4.25   5.37
          5.77   7.66   7.66   8.19   8.74   8.74   9.39   9.69   9.90  10.02
         10.02  10.70  11.10  11.72  11.73  12.04  12.73  12.89  12.89  12.90
         13.48  13.77  13.78  14.42  14.92  15.14  15.15  15.55  17.41  18.19
         18.19  19.22  19.84  19.95  19.95  20.42  21.53  21.53  21.78  22.33
         25.62  25.62  26.00  26.01  27.64  36.03  36.03  40.43  42.80  42.81
         48.88  52.14  52.15  53.10  58.10  59.67  60.82  68.72  68.72  78.69
         79.10  81.36  81.38  97.43
  99  1 -15.65 -15.05 -15.05 -14.54 -11.63 -11.02 -11.02 -10.22  -9.28  -8.81
         -8.81  -8.22  -7.09  -7.02  -7.02  -6.32  -3.30  -2.68  -2.43  -2.42
         -1.74  -1.74  -1.40  -1.17  -0.10  -0.10  -0.09   0.09   0.45   0.45
          0.71   1.24   1.73   2.15   2.48   2.74   2.74   4.25   4.25   5.37
          5.77   7.66   7.66   8.18   8.74   8.74   9.39   9.69   9.91  10.02
         10.02  10.70  11.10  11.73  11.73  12.04  12.73  12.89  12.90  12.90
         13.49  13.78  13.78  14.42  14.91  15.13  15.14  15.55  17.41  18.19
         18.19  19.21  19.84  19.95  19.95  20.43  21.52  21.52  21.77  22.34
         25.62  25.62  26.00  26.00  27.63  36.02  36.03  40.42  42.77  42.78
         48.88  52.16  52.17  53.08  58.08  59.64  60.84  68.67  68.69  78.70
         79.11  81.35  81.36  97.45
 100  1 -15.48 -14.95 -14.95 -14.60 -12.04 -11.65 -11.65 -11.02  -8.33  -7.92
         -7.92  -7.22  -6.97  -6.93  -6.93  -6.39  -3.31  -3.19  -2.86  -2.86
         -2.09  -2.08  -1.77  -1.72  -1.30  -0.94  -0.82  -0.82   1.44   1.45
          2.20   2.41   2.60   3.24   3.60   4.06   4.06   4.43   4.43   4.78
          5.23   7.05   7.06   7.19   7.19   7.83   8.13   8.65   8.95   8.95
          9.01   9.34   9.38  10.10  10.56  10.56  13.86  14.11  14.11  15.09
         15.09  15.14  15.49  15.65  15.80  16.01  16.44  16.45  17.61  18.38
         18.38  18.41  18.94  18.94  19.38  19.69  20.48  20.48  21.12  21.57
         26.89  27.00  27.00  28.42  28.66  32.20  32.21  34.30  38.80  39.79
         39.79  45.87  54.88  54.90  58.68  59.29  60.77  73.09  73.10  78.36
         84.55  84.57  85.02 105.96
 101  1 -15.17 -14.83 -14.83 -14.83 -12.12 -12.12 -12.12 -11.73  -7.17  -7.17
         -7.16  -6.76  -6.76  -6.76  -6.55  -6.55  -3.94  -3.46  -3.46  -3.46
         -2.01  -2.01  -2.01  -1.90  -1.90  -1.61  -1.61  -1.61   2.94   2.94
          2.94   3.39   4.15   4.15   4.29   4.30   4.30   5.29   5.46   5.46
          5.46   6.25   6.25   6.25   6.33   6.33   6.33   7.75   7.75   8.04
          8.04   8.04   8.75   8.75   8.75   8.86  15.90  15.96  15.96  15.96
         16.44  16.44  16.65  16.65  16.65  17.26  17.27  17.27  18.02  18.02
         18.02  18.99  19.00  19.00  19.41  19.42  19.42  19.97  19.97  21.14
         28.02  28.02  28.02  29.38  29.38  29.68  29.68  29.69  49.31  49.31
         49.32  53.74  63.19  63.19  63.19  67.14  67.14  67.14  78.60  78.60
         92.07  92.07  92.12  98.70
 102  1 -15.17 -14.83 -14.83 -14.83 -12.12 -12.12 -12.11 -11.73  -7.17  -7.17
         -7.17  -6.76  -6.76  -6.76  -6.54  -6.54  -3.93  -3.46  -3.46  -3.46
         -2.01  -2.01  -2.01  -1.90  -1.90  -1.61  -1.61  -1.61   2.94   2.94
          2.94   3.39   4.15   4.15   4.29   4.29   4.30   5.29   5.46   5.46
          5.46   6.25   6.26   6.26   6.33   6.33   6.33   7.74   7.75   8.03
          8.04   8.04   8.75   8.75   8.75   8.86  15.89  15.95  15.96  15.96
         16.44  16.44  16.64  16.65  16.65  17.27  17.27  17.27  18.02  18.03
         18.03  18.99  18.99  18.99  19.42  19.42  19.43  19.97  19.98  21.13
         28.03  28.03  28.03  29.37  29.38  29.69  29.69  29.69  49.29  49.32
         49.33  53.73  63.15  63.23  63.27  67.10  67.12  67.13  78.72  78.83
         92.04  92.08  92.08  98.76
 103  1 -15.48 -14.95 -14.95 -14.60 -12.04 -11.65 -11.65 -11.02  -8.33  -7.92
         -7.92  -7.22  -6.97  -6.93  -6.93  -6.39  -3.31  -3.18  -2.86  -2.86
         -2.09  -2.09  -1.77  -1.72  -1.30  -0.94  -0.82  -0.82   1.44   1.44
          2.20   2.41   2.60   3.24   3.60   4.06   4.06   4.43   4.43   4.77
          5.23   7.06   7.06   7.19   7.19   7.83   8.13   8.65   8.95   8.95
          9.01   9.34   9.37  10.10  10.55  10.55  13.86  14.10  14.11  15.08
         15.09  15.14  15.49  15.65  15.80  16.01  16.45  16.45  17.61  18.37
         18.38  18.41  18.94  18.95  19.38  19.69  20.48  20.49  21.12  21.56
         26.90  27.00  27.01  28.42  28.67  32.21  32.22  34.29  38.81  39.79
         39.79  45.87  54.86  54.89  58.74  59.30  60.82  73.10  73.14  78.33
         84.53  84.55  85.02 106.21
 104  1 -15.65 -15.05 -15.05 -14.54 -11.63 -11.02 -11.01 -10.22  -9.29  -8.81
         -8.81  -8.22  -7.09  -7.02  -7.02  -6.32  -3.30  -2.68  -2.43  -2.43
         -1.74  -1.74  -1.40  -1.16  -0.10  -0.10  -0.09   0.09   0.44   0.45
          0.71   1.24   1.74   2.15   2.48   2.74   2.74   4.26   4.26   5.37
          5.77   7.66   7.67   8.19   8.74   8.74   9.39   9.69   9.91  10.02
         10.02  10.70  11.10  11.73  11.73  12.04  12.73  12.89  12.89  12.90
         13.48  13.78  13.78  14.41  14.92  15.14  15.14  15.55  17.41  18.18
         18.19  19.22  19.84  19.95  19.96  20.43  21.53  21.53  21.78  22.33
         25.62  25.63  26.00  26.00  27.64  36.02  36.03  40.44  42.77  42.79
         48.91  52.11  52.15  53.08  58.12  59.67  60.81  68.69  68.72  78.70
         79.10  81.38  81.40  97.46
 105  1 -15.65 -15.05 -15.05 -14.54 -11.63 -11.02 -11.01 -10.22  -9.29  -8.81
         -8.81  -8.22  -7.09  -7.02  -7.02  -6.32  -3.30  -2.68  -2.43  -2.43
         -1.74  -1.74  -1.40  -1.16  -0.10  -0.10  -0.09   0.09   0.44   0.45
          0.71   1.24   1.74   2.15   2.48   2.74   2.74   4.26   4.26   5.37
          5.77   7.66   7.67   8.19   8.74   8.74   9.39   9.69   9.91  10.02
         10.02  10.70  11.10  11.73  11.73  12.04  12.73  12.89  12.89  12.90
         13.48  13.78  13.78  14.41  14.92  15.14  15.14  15.55  17.41  18.18
         18.19  19.22  19.84  19.95  19.96  20.43  21.53  21.53  21.78  22.33
         25.62  25.63  26.00  26.00  27.64  36.02  36.03  40.44  42.77  42.79
         48.91  52.11  52.15  53.08  58.12  59.67  60.81  68.69  68.72  78.70
         79.10  81.38  81.40  97.46
 106  1 -15.48 -14.95 -14.95 -14.60 -12.04 -11.65 -11.65 -11.02  -8.33  -7.92
         -7.92  -7.22  -6.97  -6.93  -6.93  -6.39  -3.31  -3.18  -2.86  -2.86
         -2.09  -2.09  -1.77  -1.72  -1.30  -0.94  -0.82  -0.82   1.44   1.44
          2.20   2.41   2.60   3.24   3.60   4.06   4.06   4.43   4.43   4.77
          5.23   7.06   7.06   7.19   7.19   7.83   8.13   8.65   8.95   8.95
          9.01   9.34   9.37  10.10  10.55  10.55  13.86  14.10  14.11  15.08
         15.09  15.14  15.49  15.65  15.80  16.01  16.45  16.45  17.61  18.37
         18.38  18.41  18.94  18.95  19.38  19.69  20.48  20.49  21.12  21.56
         26.90  27.00  27.01  28.42  28.67  32.21  32.22  34.29  38.81  39.79
         39.79  45.87  54.86  54.89  58.74  59.30  60.82  73.10  73.14  78.33
         84.53  84.55  85.02 106.21
 107  1 -15.17 -14.83 -14.83 -14.83 -12.12 -12.12 -12.11 -11.73  -7.17  -7.17
         -7.17  -6.76  -6.76  -6.76  -6.54  -6.54  -3.93  -3.46  -3.46  -3.46
         -2.01  -2.01  -2.01  -1.90  -1.90  -1.61  -1.61  -1.61   2.94   2.94
          2.94   3.39   4.15   4.15   4.29   4.29   4.30   5.29   5.46   5.46
          5.46   6.25   6.26   6.26   6.33   6.33   6.33   7.74   7.75   8.03
          8.04   8.04   8.75   8.75   8.75   8.86  15.89  15.95  15.96  15.96
         16.44  16.44  16.64  16.65  16.65  17.27  17.27  17.27  18.02  18.03
         18.03  18.99  18.99  18.99  19.42  19.42  19.43  19.97  19.98  21.13
         28.03  28.03  28.03  29.37  29.38  29.69  29.69  29.69  49.29  49.32
         49.33  53.73  63.15  63.23  63.27  67.10  67.12  67.13  78.72  78.83
         92.04  92.08  92.08  98.76
 108  1 -15.17 -14.83 -14.83 -14.83 -12.12 -12.12 -12.11 -11.73  -7.17  -7.17
         -7.17  -6.76  -6.76  -6.76  -6.54  -6.54  -3.93  -3.46  -3.46  -3.46
         -2.01  -2.01  -2.01  -1.90  -1.90  -1.61  -1.61  -1.61   2.94   2.94
          2.94   3.39   4.15   4.15   4.29   4.29   4.30   5.29   5.46   5.46
          5.46   6.25   6.26   6.26   6.33   6.33   6.33   7.74   7.75   8.03
          8.04   8.04   8.75   8.75   8.75   8.86  15.89  15.95  15.96  15.96
         16.44  16.44  16.64  16.65  16.65  17.27  17.27  17.27  18.02  18.03
         18.03  18.99  18.99  18.99  19.42  19.42  19.43  19.97  19.98  21.13
         28.03  28.03  28.03  29.37  29.38  29.69  29.69  29.69  49.29  49.32
         49.33  53.73  63.15  63.23  63.27  67.10  67.12  67.13  78.72  78.83
         92.04  92.08  92.08  98.76
siesta: Fermi energy =      -4.993027 eV

siesta: Program's energy decomposition (eV):
siesta: Ebs     =      -331.816110
siesta: Eions   =      1510.441798
siesta: Ena     =       471.247797
siesta: Ekin    =       319.439648
siesta: Enl     =       127.103631
siesta: DEna    =         6.577539
siesta: DUscf   =         1.521251
siesta: DUext   =         0.000000
siesta: Exc     =      -446.122900
siesta: eta*DQ  =         0.000000
siesta: Emadel  =         0.000000
siesta: Emeta   =         0.000000
siesta: Emolmec =         0.000000
siesta: Ekinion =         0.000000
siesta: Eharris =     -1030.674961
siesta: Etot    =     -1030.674832
siesta: FreeEng =     -1030.674832

siesta: Final energy (eV):
siesta:  Band Struct. =    -331.816110
siesta:       Kinetic =     319.439648
siesta:       Hartree =      59.843464
siesta:    Ext. field =       0.000000
siesta:   Exch.-corr. =    -446.122900
siesta:  Ion-electron =    -422.001972
siesta:       Ion-ion =    -541.833072
siesta:       Ekinion =       0.000000
siesta:         Total =   -1030.674832

siesta: Stress tensor (static) (eV/Ang**3):
siesta:    -0.000562    0.000058    0.000059
siesta:     0.000058   -0.000562    0.000059
siesta:     0.000059    0.000059   -0.000562

siesta: Constrained stress tensor (static) (eV/Ang**3):
siesta:    -0.000562    0.000058    0.000059
siesta:     0.000058   -0.000562    0.000059
siesta:     0.000059    0.000059   -0.000562

siesta: Cell volume =        167.912611 Ang**3

siesta: Pressure (static):
siesta:                Solid            Molecule  Units
siesta:           0.00000612          0.00000614  Ry/Bohr**3
siesta:           0.00056211          0.00056349  eV/Ang**3
siesta:           0.90061242          0.90281824  kBar
(Free)E+ p_basis*V_orbitals  =       -1021.737102
(Free)Eharris+ p_basis*V_orbitals  =       -1021.734886

* Maximum dynamic memory allocated : Node    0 =    93 MB

* Maximum memory occured during init_pulay_arrrays            

timer: CPU execution times:
timer:  Routine       Calls   Time/call    Tot.time        %
timer:  siesta            1    2038.387    2038.387   100.00
timer:  Setup             1       0.132       0.132     0.01
timer:  bands             3       0.517       1.552     0.08
timer:  writewave         3       0.007       0.020     0.00
timer:  KSV_init          1       0.000       0.000     0.00
timer:  IterMD           22      92.571    2036.571    99.91
timer:  hsparse          22       0.171       3.772     0.19
timer:  overlap          22       0.125       2.748     0.13
timer:  IterSCF         106      15.872    1682.413    82.54
timer:  kinefsm          44       0.127       5.572     0.27
timer:  nlefsm           44       4.011     176.475     8.66
timer:  DHSCF           128       8.696    1113.034    54.60
timer:  DHSCF1           22       0.045       1.000     0.05
timer:  DHSCF2           22       2.108      46.379     2.28
timer:  REORD           812       0.000       0.036     0.00
timer:  POISON          150       0.004       0.657     0.03
timer:  DHSCF3          128       7.673     982.134    48.18
timer:  rhoofd          128       3.505     448.603    22.01
timer:  cellXC          128       0.109      13.957     0.68
timer:  vmat            128       4.054     518.861    25.45
timer:  MolMec           44       0.000       0.000     0.00
timer:  diagon          106       6.861     727.253    35.68
timer:  c-eigval      13085       0.017     219.198    10.75
timer:  c-buildHS     13085       0.012     160.203     7.86
timer:  cdiag         26070       0.007     182.018     8.93
timer:  cdiag1        26070       0.001      13.463     0.66
timer:  cdiag2        26070       0.002      46.577     2.28
timer:  cdiag3        26070       0.005     118.035     5.79
timer:  cdiag4        26070       0.000       3.371     0.17
timer:  c-eigvec      12985       0.022     283.300    13.90
timer:  c-buildD      12984       0.017     225.108    11.04
timer:  DHSCF4           22       3.796      83.505     4.10
timer:  dfscf            22       3.578      78.716     3.86
timer:  overfsm          22       0.124       2.732     0.13
timer:  optical           1       0.000       0.000     0.00
  

elaps: ELAPSED times:
elaps:  Routine       Calls   Time/call    Tot.time        %
elaps:  siesta            1    2046.643    2046.643   100.00
elaps:  Setup             1       0.138       0.138     0.01
elaps:  bands             3       0.523       1.570     0.08
elaps:  writewave         3       0.007       0.021     0.00
elaps:  KSV_init          1       0.000       0.000     0.00
elaps:  IterMD           22      92.945    2044.801    99.91
elaps:  hsparse          22       0.172       3.791     0.19
elaps:  overlap          22       0.125       2.760     0.13
elaps:  IterSCF         106      15.935    1689.088    82.53
elaps:  kinefsm          44       0.127       5.591     0.27
elaps:  nlefsm           44       4.025     177.101     8.65
elaps:  DHSCF           128       8.731    1117.507    54.60
elaps:  DHSCF1           22       0.046       1.013     0.05
elaps:  DHSCF2           22       2.116      46.541     2.27
elaps:  REORD           812       0.000       0.070     0.00
elaps:  POISON          150       0.004       0.657     0.03
elaps:  DHSCF3          128       7.704     986.086    48.18
elaps:  rhoofd          128       3.518     450.353    22.00
elaps:  cellXC          128       0.109      13.996     0.68
elaps:  vmat            128       4.070     520.991    25.46
elaps:  MolMec           44       0.000       0.000     0.00
elaps:  diagon          106       6.890     730.356    35.69
elaps:  c-eigval      13085       0.017     220.164    10.76
elaps:  c-buildHS     13085       0.012     161.152     7.87
elaps:  cdiag         26070       0.007     182.582     8.92
elaps:  cdiag1        26070       0.001      13.546     0.66
elaps:  cdiag2        26070       0.002      47.576     2.32
elaps:  cdiag3        26070       0.005     117.515     5.74
elaps:  cdiag4        26070       0.000       3.312     0.16
elaps:  c-eigvec      12985       0.022     284.524    13.90
elaps:  c-buildD      12984       0.017     226.154    11.05
elaps:  DHSCF4           22       3.811      83.836     4.10
elaps:  dfscf            22       3.592      79.029     3.86
elaps:  overfsm          22       0.125       2.743     0.13
elaps:  optical           1       0.000       0.000     0.00
  
>> End of run:   9-MAY-2013  22:06:17

=====================================================================================
=   BAD TERMINATION OF ONE OF YOUR APPLICATION PROCESSES
=   EXIT CODE: 134
=   CLEANING UP REMAINING PROCESSES
=   YOU CAN IGNORE THE BELOW CLEANUP MESSAGES
=====================================================================================
APPLICATION TERMINATED WITH THE EXIT STRING: Aborted (signal 6)
