Siesta Version:                                        siesta-3.2
Siesta Version:                                        siesta-3.2
Architecture  : x86_64-unknown-linux-gnu--unknown
Compiler flags: f95 -g -O2
SERIAL version

* Running in serial mode
>> Start of run:  10-MAY-2013   0:27:48

Architecture  : x86_64-unknown-linux-gnu--unknown
Compiler flags: f95 -g -O2
SERIAL version

* Running in serial mode
                           ***********************       
                           *  WELCOME TO SIESTA  *       
                           ***********************       

reinit: Reading from standard input
>> Start of run:  10-MAY-2013   0:27:48
************************** Dump of input data file ****************************
************************** End of input data file *****************************

reinit: -----------------------------------------------------------------------
reinit: System Name: 
reinit: -----------------------------------------------------------------------
reinit: System Label: siesta                                                      
reinit: -----------------------------------------------------------------------

                           ***********************       
                           *  WELCOME TO SIESTA  *       
                           ***********************       

reinit: Reading from standard input
************************** Dump of input data file ****************************
# FDF for silicon
SystemName             silicon          # Descriptive name of the system
SystemLabel            si          # Short name for naming files
NumberOfAtoms 8
NumberOfSpecies 1

%block ChemicalSpeciesLabel
1 14 Si
%endblock ChemicalSpeciesLabel
LatticeConstant  5.05 Ang
##Basis set Definition##
PAO.BasisType          split        # Type of PAO basis set
PAO.EnergyShift        50 meV
PAO.BasisSize          DZP          # (DZP) Double-z + polarization
#%block LatticeVectors
#0.500 0.500 0.000
#0.500 0.000 0.500
#0.000 0.500 0.500
#%endblock LatticeVectors
AtomicCoordinatesFormat NotScaledCartesianAng
%block AtomicCoordinatesAndAtomicSpecies
	0.00000000	0.00000000	0.00000000  1 Si  1
	1.36000000	1.36000000	1.36000000  1 Si  2
	2.72000000	2.72000000	0.00000000  1 Si  3
	4.08000000	4.08000000	1.36000000  1 Si  4
	2.72000000	0.00000000	2.72000000  1 Si  5
	4.08000000	1.36000000	4.08000000  1 Si  6
	0.00000000	2.72000000	2.72000000  1 Si  7
	1.36000000	4.08000000	4.08000000  1 Si  8
%endblock AtomicCoordinatesAndAtomicSpecies
MeshCutoff 100.0 Ry # 100, 120, 180, 260
kgrid_cutoff 30.0 Bohr # 30, 35, 40, 45
DM.Mixingweight  0.3
DM.NumberPulay    3
DM.Tolerance      1.d-3
DM.UseSaveDM      true
ElectronicTemperature 25 meV
SolutionMethod    diagon
XC.functional     LDA	    # Local Density Approximation
XC.authors        CA           # Ceperley-Alder
SpinPolarized     false
MD.TypeOfRun           CG           # Type of dynamics:
MD.VariableCell        true
MD.NumCGsteps          100          # Number of CG steps for coordinate optimization
MD.MaxCGDispl          0.2 Bohr     # Maximum atomic displacement
                                    #   in one CG step (Bohr)
MD.MaxForceTol         0.04 eV/Ang  # Tolerance in the maximum
                                    #   atomic force (Ry/Bohr)
				
##Output Specification##
WriteMDhistory         true         # Trajectory information
WriteCoorStep          true
initatom: Reading input for the pseudopotentials and atomic orbitals ----------
WriteCoorXmol          true
WriteMDXmol            true
WriteEigenvalues true
WriteKbands      true
No species found!!!
ERROR STOP from Node:    0
WriteBands       true
WriteWaveFunctions true
WriteMullikenPoP   1
%block BandLines
1	1.000	1.000 1.000 L
25	0.000	0.000	0.000 \Gamma
30	2.000	0.000	0.000 X
10	2.000	0.500	0.500 U
35	0.000	0.000	0.000 \Gamma
%endblock BandLines
%block WaveFuncKPoints
0.0 0.0 0.0 from 1 to 50 # > 16 = 4/2*8 (Valenzelektronen/2, Atomzahl ...)
%endblock WaveFuncKpoints
************************** End of input data file *****************************

reinit: -----------------------------------------------------------------------
reinit: System Name: silicon
reinit: -----------------------------------------------------------------------
reinit: System Label: si                                                          
reinit: -----------------------------------------------------------------------

initatom: Reading input for the pseudopotentials and atomic orbitals ----------
 Species number:            1  Label: Si Atomic number:          14
Ground state valence configuration:   3s02  3p02
Reading pseudopotential information in formatted form from Si.psf

Valence configuration for pseudopotential generation:
3s( 2.00) rc: 1.75
3p( 2.00) rc: 1.94
3d( 0.00) rc: 2.09
4f( 0.00) rc: 2.09
For Si, standard SIESTA heuristics set lmxkb to 3
 (one more than the basis l, including polarization orbitals).
Use PS.lmax or PS.KBprojectors blocks to override.

<basis_specs>
===============================================================================
Si                   Z=  14    Mass=  28.090        Charge= 0.17977+309
Lmxo=1 Lmxkb= 3    BasisType=split      Semic=F
L=0  Nsemic=0  Cnfigmx=3
          n=1  nzeta=2  polorb=0
            splnorm:   0.15000    
               vcte:    0.0000    
               rinn:    0.0000    
                rcs:    0.0000      0.0000    
            lambdas:    1.0000      1.0000    
L=1  Nsemic=0  Cnfigmx=3
          n=1  nzeta=2  polorb=1
            splnorm:   0.15000    
               vcte:    0.0000    
               rinn:    0.0000    
                rcs:    0.0000      0.0000    
            lambdas:    1.0000      1.0000    
-------------------------------------------------------------------------------
L=0  Nkbl=1  erefs: 0.17977+309
L=1  Nkbl=1  erefs: 0.17977+309
L=2  Nkbl=1  erefs: 0.17977+309
L=3  Nkbl=1  erefs: 0.17977+309
===============================================================================
</basis_specs>

atom: Called for Si                    (Z =  14)

read_vps: Pseudopotential generation method:
read_vps: ATM3      Troullier-Martins                       
Total valence charge:    4.00000

xc_check: Exchange-correlation functional:
xc_check: Ceperley-Alder
V l=0 = -2*Zval/r beyond r=  2.5494
V l=1 = -2*Zval/r beyond r=  2.5494
V l=2 = -2*Zval/r beyond r=  2.5494
V l=3 = -2*Zval/r beyond r=  2.5494
All V_l potentials equal beyond r=  2.0613
This should be close to max(r_c) in ps generation
All pots = -2*Zval/r beyond r=  2.5494

VLOCAL1: 99.0% of the norm of Vloc inside     10.216 Ry
VLOCAL1: 99.9% of the norm of Vloc inside     23.282 Ry
atom: Maximum radius for 4*pi*r*r*local-pseudopot. charge    2.45560
atom: Maximum radius for r*vlocal+2*Zval:    2.14012
GHOST: No ghost state for L =  0
GHOST: No ghost state for L =  1
GHOST: No ghost state for L =  2
GHOST: No ghost state for L =  3

KBgen: Kleinman-Bylander projectors: 
   l= 0   rc=  2.782581   el= -0.796617   Ekb=  4.840502   kbcos=  0.288423
   l= 1   rc=  2.888916   el= -0.307040   Ekb=  1.512733   kbcos=  0.296968
   l= 2   rc=  2.962054   el=  0.002313   Ekb= -2.156507   kbcos= -0.061834
   l= 3   rc=  3.192765   el=  0.003402   Ekb= -0.600958   kbcos= -0.007408

KBgen: Total number of  Kleinman-Bylander projectors:   16
atom: -------------------------------------------------------------------------

atom: SANKEY-TYPE ORBITALS:
atom: Selected multiple-zeta basis: split     

SPLIT: Orbitals with angular momentum L= 0

SPLIT: Basis orbitals for state 3s

SPLIT: PAO cut-off radius determined from an
SPLIT: energy shift=  0.003675 Ry

   izeta = 1
                 lambda =    1.000000
                     rc =    6.116033
                 energy =   -0.793486
                kinetic =    0.528761
    potential(screened) =   -1.322246
       potential(ionic) =   -3.766038

   izeta = 2
                 rmatch =    4.530823
              splitnorm =    0.150000
                 energy =   -0.697320
                kinetic =    0.853435
    potential(screened) =   -1.550756
       potential(ionic) =   -4.120809

SPLIT: Orbitals with angular momentum L= 1

SPLIT: Basis orbitals for state 3p

SPLIT: PAO cut-off radius determined from an
SPLIT: energy shift=  0.003675 Ry

   izeta = 1
                 lambda =    1.000000
                     rc =    7.853192
                 energy =   -0.303674
                kinetic =    0.798475
    potential(screened) =   -1.102149
       potential(ionic) =   -3.307324

   izeta = 2
                 rmatch =    5.397360
              splitnorm =    0.150000
                 energy =   -0.229357
                kinetic =    1.170483
    potential(screened) =   -1.399841
       potential(ionic) =   -3.814095

POLgen: Perturbative polarization orbital with L=  2

POLgen: Polarization orbital for state 3p

   izeta = 1
                     rc =    7.853192
                 energy =    0.331669
                kinetic =    1.088595
    potential(screened) =   -0.756926
       potential(ionic) =   -2.714870
atom: Total number of Sankey-type orbitals: 13

atm_pop: Valence configuration (for local Pseudopot. screening):
 3s( 2.00)                                                            
 3p( 2.00)                                                            
Vna: chval, zval:    4.00000   4.00000

Vna:  Cut-off radius for the neutral-atom potential:   7.853192

atom: _________________________________________________________________________

prinput: Basis input ----------------------------------------------------------

PAO.BasisType split     

%block ChemicalSpeciesLabel
    1   14 Si                      # Species index, atomic number, species label
%endblock ChemicalSpeciesLabel

%block PAO.Basis                 # Define Basis set
Si                    2                    # Species label, number of l-shells
 n=3   0   2                         # n, l, Nzeta 
   6.116      4.531   
   1.000      1.000   
 n=3   1   2 P   1                   # n, l, Nzeta, Polarization, NzetaPol
   7.853      5.397   
   1.000      1.000   
%endblock PAO.Basis

prinput: ----------------------------------------------------------------------

coor:   Atomic-coordinates input format  =     Cartesian coordinates
coor:                                          (in Angstroms)

siesta: Atomic coordinates (Bohr) and species
siesta:      0.00000   0.00000   0.00000  1        1
siesta:      2.57003   2.57003   2.57003  1        2
siesta:      5.14006   5.14006   0.00000  1        3
siesta:      7.71009   7.71009   2.57003  1        4
siesta:      5.14006   0.00000   5.14006  1        5
siesta:      7.71009   2.57003   7.71009  1        6
siesta:      0.00000   5.14006   5.14006  1        7
siesta:      2.57003   7.71009   7.71009  1        8

siesta: System type = bulk      

initatomlists: Number of atoms, orbitals, and projectors:      8   104   128

siesta: ******************** Simulation parameters ****************************
siesta:
siesta: The following are some of the parameters of the simulation.
siesta: A complete list of the parameters used, including default values,
siesta: can be found in file out.fdf
siesta:
redata: Non-Collinear-spin run           =     F
redata: SpinPolarized (Up/Down) run      =     F
redata: Number of spin components        =     1
redata: Long output                      =     F
redata: Number of Atomic Species         =        1
redata: Charge density info will appear in .RHO file
redata: Write Mulliken Pop.              =     Atomic and Orbital charges
redata: Mesh Cutoff                      =   100.0000  Ry
redata: Net charge of the system         =     0.0000 |e|
redata: Max. number of SCF Iter          =       50
redata: Performing Pulay mixing using    =     3 iterations
redata: Mix DM in first SCF step ?       =     F
redata: Write Pulay info on disk?        =     F
redata: Discard 1st Pulay DM after  kick =     F
redata: New DM Mixing Weight             =     0.3000
redata: New DM Occupancy tolerance       = 0.000000000001
redata: No kicks to SCF
redata: DM Mixing Weight for Kicks       =     0.5000
redata: DM Tolerance for SCF             =     0.001000
redata: Require Energy convergence for SCF =     F
redata: DM Energy tolerance for SCF      =     0.000100 eV
redata: Require Harris convergence for SCF =     F
redata: DM Harris energy tolerance for SCF =     0.000100 eV
redata: Using Saved Data (generic)   =     F
redata: Use continuation files for DM    =     T
redata: Neglect nonoverlap interactions  =     F
redata: Method of Calculation            =     Diagonalization
redata: Divide and Conquer               =     T
redata: Electronic Temperature           =     0.0018  Ry
redata: Fix the spin of the system       =     F
redata: Dynamics option                  =     CG coord. optimization
redata: Variable cell                    =     T
redata: Use continuation files for CG    =     F
redata: Max atomic displ per move        =     0.2000  Bohr
redata: Maximum number of CG moves       =      100
redata: Force tolerance                  =     0.0016  Ry/Bohr
redata: Stress tolerance                 =     1.0000  GPa
redata: ***********************************************************************
Total number of electrons:    32.000000
Total ionic charge:    32.000000
 Kpoints in:          196 . Kpoints trimmed:          172

siesta: k-grid: Number of k-points =   172
siesta: k-grid: Cutoff (effective) =    17.675 Ang
siesta: k-grid: Supercell and displacements
siesta: k-grid:    0   7   0      0.000
siesta: k-grid:    0   0   7      0.000
siesta: k-grid:    7   0   0      0.000
Naive supercell factors:     5    5    5

superc: Internal auxiliary supercell:     5 x     5 x     5  =     125
superc: Number of atoms, orbitals, and projectors:   1000  13000  16000

* Maximum dynamic memory allocated =     2 MB

siesta:                 ==============================
                            Begin CG move =      0
                        ==============================

outcoor: Atomic coordinates (Ang):                          
    0.00000000    0.00000000    0.00000000   1       1  Si
    1.36000000    1.36000000    1.36000000   1       2  Si
    2.72000000    2.72000000    0.00000000   1       3  Si
    4.08000000    4.08000000    1.36000000   1       4  Si
    2.72000000    0.00000000    2.72000000   1       5  Si
    4.08000000    1.36000000    4.08000000   1       6  Si
    0.00000000    2.72000000    2.72000000   1       7  Si
    1.36000000    4.08000000    4.08000000   1       8  Si

superc: Internal auxiliary supercell:     5 x     5 x     5  =     125
superc: Number of atoms, orbitals, and projectors:   1000  13000  16000

outcell: Unit cell vectors (Ang):
        5.050000    0.000000    0.000000
        0.000000    5.050000    0.000000
        0.000000    0.000000    5.050000

outcell: Cell vector modules (Ang)   :    5.050000    5.050000    5.050000
outcell: Cell angles (23,13,12) (deg):     90.0000     90.0000     90.0000
outcell: Cell volume (Ang**3)        :    128.7876
New_DM. Step:     1
Initializing Density Matrix...

InitMesh: MESH =    32 x    32 x    32 =       32768
InitMesh: Mesh cutoff (required, used) =   100.000   110.973 Ry

* Maximum dynamic memory allocated =    83 MB

stepf: Fermi-Dirac step function

siesta: Program's energy decomposition (eV):
siesta: Ebs     =      -392.867215
siesta: Eions   =      1510.441798
siesta: Ena     =       449.532726
siesta: Ekin    =       288.938730
siesta: Enl     =       148.596931
siesta: DEna    =         0.000001
siesta: DUscf   =         0.000000
siesta: DUext   =         0.000000
siesta: Exc     =      -267.579655
siesta: eta*DQ  =         0.000000
siesta: Emadel  =         0.000000
siesta: Emeta   =         0.000000
siesta: Emolmec =         0.000000
siesta: Ekinion =         0.000000
siesta: Eharris =      -856.008682
siesta: Etot    =      -890.953066
siesta: FreeEng =      -890.953066

siesta: iscf   Eharris(eV)      E_KS(eV)   FreeEng(eV)   dDmax  Ef(eV)
siesta:    1     -856.0087     -890.9531     -890.9531  1.6661 -6.2478
timer: Routine,Calls,Time,% = IterSCF        1      30.502  97.61
elaps: Routine,Calls,Wall,% = IterSCF        1      30.625  97.59
siesta:    2     -855.5135     -854.9055     -854.9068  0.2415 -5.9066
siesta:    3     -855.2321     -858.9686     -858.9719  0.1823 -6.0084
siesta:    4     -855.2272     -855.6710     -855.6737  0.0275 -6.0085
siesta:    5     -855.2262     -855.1764     -855.1790  0.0060 -6.0109
siesta:    6     -855.2261     -855.2623     -855.2648  0.0040 -6.0133
siesta:    7     -855.2261     -855.2633     -855.2658  0.0031 -6.0138
siesta:    8     -855.2261     -855.2471     -855.2496  0.0014 -6.0138
siesta:    9     -855.2261     -855.2355     -855.2380  0.0006 -6.0137

siesta: E_KS(eV) =             -855.2266

siesta: E_KS - E_eggbox =      -855.2266

siesta: Atomic forces (eV/Ang):
----------------------------------------
   Tot    0.001225    0.001223    0.001202
----------------------------------------
   Max    4.560405
   Res    3.045849    sqrt( Sum f_i^2 / 3N )
----------------------------------------
   Max    4.560405    constrained

Stress-tensor-Voigt (kbar):     -382.45     -382.45     -382.45      125.83      125.83      125.83
(Free)E + p*V (eV/cell)     -824.4868
Target enthalpy (eV/cell)     -855.2291

siesta: Stress tensor (static) (eV/Ang**3):
        -0.238706    0.078539    0.078539
         0.078539   -0.238706    0.078539
         0.078539    0.078539   -0.238706

siesta: Pressure (static):        382.45319682  kBar

siesta: Stress tensor (total) (eV/Ang**3):
        -0.238706    0.078539    0.078539
         0.078539   -0.238706    0.078539
         0.078539    0.078539   -0.238706

siesta: Pressure (total):        382.45319682  kBar

mulliken: Mulliken Atomic and Orbital Populations:

Species: Si                  
Atom  Qatom  Qorb
               3s      3s      3py     3pz     3px     3py     3pz     3px     
               3Pdxy   3Pdyz   3Pdz2   3Pdxz   3Pdx2-y2
   1  4.309   0.220   0.832   0.076   0.076   0.076   0.708   0.708   0.708
              0.191   0.191   0.165   0.191   0.165
   2  3.837   0.650   0.587   0.063   0.063   0.063   0.609   0.609   0.609
              0.139   0.139   0.083   0.139   0.083
   3  3.904   0.521   0.643  -0.001   0.105  -0.001   0.677   0.618   0.677
              0.163   0.149   0.089   0.149   0.115
   4  4.048   0.384   0.719   0.064  -0.050   0.064   0.682   0.745   0.682
              0.163   0.169   0.151   0.169   0.107
   5  3.904   0.521   0.643   0.105  -0.001  -0.001   0.618   0.677   0.677
              0.149   0.149   0.109   0.163   0.095
   6  4.048   0.384   0.719  -0.050   0.064   0.064   0.745   0.682   0.682
              0.169   0.169   0.118   0.163   0.140
   7  3.904   0.521   0.643  -0.001  -0.001   0.105   0.677   0.677   0.618
              0.149   0.163   0.109   0.149   0.095
   8  4.048   0.384   0.719   0.064   0.064  -0.050   0.682   0.682   0.745
              0.169   0.163   0.118   0.169   0.140

mulliken: Qtot =       32.000

cgvc: No target stress found, assuming hydrostatic MD.TargetPressure.

cgvc: Target stress (kBar)
cgvc:        -0.000       0.000       0.000
cgvc:         0.000      -0.000       0.000
cgvc:         0.000       0.000      -0.000

* Maximum dynamic memory allocated =    84 MB

siesta:                 ==============================
                            Begin CG move =      1
                        ==============================

outcoor: Atomic coordinates (Ang):                          
    0.01811373    0.01811371    0.01811370   1       1  Si
    1.36638365    1.36638365    1.36638367   1       2  Si
    2.72936791    2.72936790    0.00533312   1       3  Si
    4.06994358    4.06994358    1.37046919   1       4  Si
    2.72936791    0.00533321    2.72936789   1       5  Si
    4.06994358    1.37046919    4.06994353   1       6  Si
    0.00533321    2.72936790    2.72936790   1       7  Si
    1.37046917    4.06994357    4.06994355   1       8  Si
 Kpoints in:          196 . Kpoints trimmed:          172

siesta: k-grid: Number of k-points =   172
siesta: k-grid: Cutoff (effective) =    17.798 Ang
siesta: k-grid: Supercell and displacements
siesta: k-grid:    0   0   7      0.000
siesta: k-grid:    0   7   0      0.000
siesta: k-grid:    7   0   0      0.000
Naive supercell factors:     5    5    5

superc: Internal auxiliary supercell:     5 x     5 x     5  =     125
superc: Number of atoms, orbitals, and projectors:   1000  13000  16000

outcell: Unit cell vectors (Ang):
        5.085214   -0.011586   -0.011586
       -0.011586    5.085214   -0.011586
       -0.011586   -0.011586    5.085214

outcell: Cell vector modules (Ang)   :    5.085241    5.085241    5.085241
outcell: Cell angles (23,13,12) (deg):     90.2608     90.2608     90.2608
outcell: Cell volume (Ang**3)        :    131.4986
New_DM. Step:     2
Re-using DM from previous geometry...
Re-using DM without extrapolation (not allowed)
Density Matrix sparsity pattern changed.

InitMesh: MESH =    32 x    32 x    32 =       32768
InitMesh: Mesh cutoff (required, used) =   100.000   109.445 Ry

siesta: iscf   Eharris(eV)      E_KS(eV)   FreeEng(eV)   dDmax  Ef(eV)
siesta:    1     -857.0657     -855.7216     -855.7241  0.0765 -5.9521
siesta:    2     -857.0840     -857.0446     -857.0461  0.0256 -5.9125
siesta:    3     -857.0580     -857.0163     -857.0179  0.0021 -5.9340
siesta:    4     -857.0578     -857.0390     -857.0405  0.0008 -5.9364

siesta: E_KS(eV) =             -857.0583

siesta: Atomic forces (eV/Ang):
----------------------------------------
   Tot    0.006295    0.006287    0.006281
----------------------------------------
   Max    3.450046
   Res    2.357538    sqrt( Sum f_i^2 / 3N )
----------------------------------------
   Max    3.450046    constrained

Stress-tensor-Voigt (kbar):     -321.05     -321.05     -321.05       90.65       90.65       90.65
(Free)E + p*V (eV/cell)     -830.7100
Target enthalpy (eV/cell)     -857.0599

siesta: Stress tensor (static) (eV/Ang**3):
        -0.200382    0.056581    0.056581
         0.056581   -0.200382    0.056581
         0.056581    0.056581   -0.200382

siesta: Pressure (static):        321.05007653  kBar

siesta: Stress tensor (total) (eV/Ang**3):
        -0.200382    0.056581    0.056581
         0.056581   -0.200382    0.056581
         0.056581    0.056581   -0.200382

siesta: Pressure (total):        321.05007653  kBar

mulliken: Mulliken Atomic and Orbital Populations:

Species: Si                  
Atom  Qatom  Qorb
               3s      3s      3py     3pz     3px     3py     3pz     3px     
               3Pdxy   3Pdyz   3Pdz2   3Pdxz   3Pdx2-y2
   1  4.200   0.277   0.787   0.054   0.054   0.054   0.713   0.713   0.713
              0.182   0.182   0.146   0.182   0.146
   2  3.872   0.651   0.582   0.086   0.086   0.086   0.602   0.602   0.602
              0.137   0.137   0.082   0.137   0.082
   3  3.933   0.526   0.638   0.029   0.118   0.029   0.663   0.614   0.663
              0.159   0.147   0.089   0.147   0.111
   4  4.043   0.406   0.703   0.081  -0.041   0.081   0.668   0.740   0.668
              0.160   0.167   0.140   0.167   0.103
   5  3.933   0.526   0.638   0.118   0.029   0.029   0.614   0.663   0.663
              0.147   0.147   0.105   0.159   0.094
   6  4.043   0.406   0.703  -0.041   0.081   0.081   0.740   0.668   0.668
              0.167   0.167   0.112   0.160   0.131
   7  3.933   0.526   0.638   0.029   0.029   0.118   0.663   0.663   0.614
              0.147   0.159   0.105   0.147   0.094
   8  4.043   0.406   0.703   0.081   0.081  -0.041   0.668   0.668   0.740
              0.167   0.160   0.112   0.167   0.131

mulliken: Qtot =       32.000

* Maximum dynamic memory allocated =    97 MB

siesta:                 ==============================
                            Begin CG move =      2
                        ==============================

outcoor: Atomic coordinates (Ang):                          
    0.04727494    0.04727490    0.04727486   1       1  Si
    1.37662858    1.37662857    1.37662862   1       2  Si
    2.74412359    2.74412357    0.01444189   1       3  Si
    4.05316431    4.05316431    1.38827781   1       4  Si
    2.74412357    0.01444211    2.74412354   1       5  Si
    4.05316430    1.38827781    4.05316419   1       6  Si
    0.01444213    2.74412357    2.74412356   1       7  Si
    1.38827776    4.05316428    4.05316422   1       8  Si
 Kpoints in:          196 . Kpoints trimmed:          172

siesta: k-grid: Number of k-points =   172
siesta: k-grid: Cutoff (effective) =    17.996 Ang
siesta: k-grid: Supercell and displacements
siesta: k-grid:    0   0   7      0.000
siesta: k-grid:    0   7   0      0.000
siesta: k-grid:    7   0   0      0.000
Naive supercell factors:     5    5    5

superc: Internal auxiliary supercell:     5 x     5 x     5  =     125
superc: Number of atoms, orbitals, and projectors:   1000  13000  16000

outcell: Unit cell vectors (Ang):
        5.141557   -0.030124   -0.030124
       -0.030124    5.141557   -0.030124
       -0.030124   -0.030124    5.141557

outcell: Cell vector modules (Ang)   :    5.141733    5.141733    5.141733
outcell: Cell angles (23,13,12) (deg):     90.6694     90.6694     90.6694
outcell: Cell volume (Ang**3)        :    135.9061
New_DM. Step:     3
Re-using DM from previous geometry...
Re-using DM without extrapolation (not allowed)
Density Matrix sparsity pattern changed.

InitMesh: MESH =    32 x    32 x    32 =       32768
InitMesh: Mesh cutoff (required, used) =   100.000   107.079 Ry

siesta: iscf   Eharris(eV)      E_KS(eV)   FreeEng(eV)   dDmax  Ef(eV)
siesta:    1     -859.2067     -857.2352     -857.2368  0.0960 -5.7946
siesta:    2     -859.2992     -859.1112     -859.1129  0.0568 -5.7309
siesta:    3     -859.1746     -859.0067     -859.0083  0.0099 -5.7671
siesta:    4     -859.1738     -859.1383     -859.1401  0.0014 -5.7708
siesta:    5     -859.1737     -859.1532     -859.1550  0.0008 -5.7710

siesta: E_KS(eV) =             -859.1698

siesta: Atomic forces (eV/Ang):
----------------------------------------
   Tot   -0.004823   -0.004820   -0.004829
----------------------------------------
   Max    2.477140
   Res    1.501121    sqrt( Sum f_i^2 / 3N )
----------------------------------------
   Max    2.477140    constrained

Stress-tensor-Voigt (kbar):     -238.99     -238.99     -238.99       43.05       43.05       43.05
(Free)E + p*V (eV/cell)     -838.8995
Target enthalpy (eV/cell)     -859.1715

siesta: Stress tensor (static) (eV/Ang**3):
        -0.149162    0.026869    0.026869
         0.026869   -0.149162    0.026869
         0.026869    0.026869   -0.149162

siesta: Pressure (static):        238.98647061  kBar

siesta: Stress tensor (total) (eV/Ang**3):
        -0.149162    0.026869    0.026869
         0.026869   -0.149162    0.026869
         0.026869    0.026869   -0.149162

siesta: Pressure (total):        238.98647061  kBar

mulliken: Mulliken Atomic and Orbital Populations:

Species: Si                  
Atom  Qatom  Qorb
               3s      3s      3py     3pz     3px     3py     3pz     3px     
               3Pdxy   3Pdyz   3Pdz2   3Pdxz   3Pdx2-y2
   1  4.080   0.383   0.714   0.050   0.050   0.050   0.697   0.697   0.697
              0.167   0.167   0.121   0.167   0.121
   2  3.914   0.651   0.574   0.113   0.113   0.113   0.595   0.595   0.595
              0.134   0.134   0.081   0.134   0.081
   3  3.970   0.540   0.625   0.068   0.121   0.068   0.647   0.617   0.647
              0.153   0.145   0.089   0.145   0.103
   4  4.032   0.449   0.676   0.099  -0.019   0.099   0.653   0.723   0.653
              0.154   0.162   0.125   0.162   0.098
   5  3.970   0.540   0.625   0.121   0.068   0.068   0.617   0.647   0.647
              0.145   0.145   0.100   0.153   0.093
   6  4.032   0.449   0.676  -0.019   0.099   0.099   0.723   0.653   0.653
              0.162   0.162   0.104   0.154   0.118
   7  3.970   0.540   0.625   0.068   0.068   0.121   0.647   0.647   0.617
              0.145   0.153   0.100   0.145   0.093
   8  4.032   0.449   0.676   0.099   0.099  -0.019   0.653   0.653   0.723
              0.162   0.154   0.104   0.162   0.118

mulliken: Qtot =       32.000

* Maximum dynamic memory allocated =    97 MB

siesta:                 ==============================
                            Begin CG move =      3
                        ==============================

outcoor: Atomic coordinates (Ang):                          
    0.09439179    0.09439169    0.09439162   1       1  Si
    1.39310003    1.39310001    1.39310010   1       2  Si
    2.76713625    2.76713621    0.03048989   1       3  Si
    4.02455363    4.02455363    1.41947988   1       4  Si
    2.76713622    0.03049035    2.76713614   1       5  Si
    4.02455362    1.41947988    4.02455339   1       6  Si
    0.03049040    2.76713620    2.76713620   1       7  Si
    1.41947976    4.02455357    4.02455346   1       8  Si
 Kpoints in:          196 . Kpoints trimmed:          172

siesta: k-grid: Number of k-points =   172
siesta: k-grid: Cutoff (effective) =    18.313 Ang
siesta: k-grid: Supercell and displacements
siesta: k-grid:    0   0   7      0.000
siesta: k-grid:    0   7   0      0.000
siesta: k-grid:    7   0   0      0.000
Naive supercell factors:     5    5    5

superc: Internal auxiliary supercell:     5 x     5 x     5  =     125
superc: Number of atoms, orbitals, and projectors:   1000  13000  16000

outcell: Unit cell vectors (Ang):
        5.231705   -0.059784   -0.059784
       -0.059784    5.231705   -0.059784
       -0.059784   -0.059784    5.231705

outcell: Cell vector modules (Ang)   :    5.232388    5.232388    5.232388
outcell: Cell angles (23,13,12) (deg):     91.3018     91.3018     91.3018
outcell: Cell volume (Ang**3)        :    143.1391
New_DM. Step:     4
Re-using DM from previous geometry...
Re-using DM without extrapolation (not allowed)
Density Matrix sparsity pattern changed.

InitMesh: MESH =    32 x    32 x    32 =       32768
InitMesh: Mesh cutoff (required, used) =   100.000   103.481 Ry

siesta: iscf   Eharris(eV)      E_KS(eV)   FreeEng(eV)   dDmax  Ef(eV)
siesta:    1     -861.0257     -858.3482     -858.3500  0.0843 -5.6899
siesta:    2     -861.4684     -860.5661     -860.5666  0.1109 -5.6565
siesta:    3     -860.8733     -860.2752     -860.2755  0.0301 -5.6677
siesta:    4     -860.8705     -860.7638     -860.7641  0.0031 -5.6705
siesta:    5     -860.8705     -860.7975     -860.7978  0.0019 -5.6700
siesta:    6     -860.8704     -860.8547     -860.8551  0.0005 -5.6692

siesta: E_KS(eV) =             -860.8640

siesta: Atomic forces (eV/Ang):
----------------------------------------
   Tot   -0.001640   -0.001659   -0.001633
----------------------------------------
   Max    1.558811
   Res    0.774090    sqrt( Sum f_i^2 / 3N )
----------------------------------------
   Max    1.558811    constrained

Stress-tensor-Voigt (kbar):     -144.84     -144.84     -144.84      -12.67      -12.67      -12.67
(Free)E + p*V (eV/cell)     -847.9247
Target enthalpy (eV/cell)     -860.8644

siesta: Stress tensor (static) (eV/Ang**3):
        -0.090400   -0.007910   -0.007910
        -0.007910   -0.090399   -0.007910
        -0.007910   -0.007910   -0.090399

siesta: Pressure (static):        144.83753399  kBar

siesta: Stress tensor (total) (eV/Ang**3):
        -0.090400   -0.007910   -0.007910
        -0.007910   -0.090399   -0.007910
        -0.007910   -0.007910   -0.090399

siesta: Pressure (total):        144.83753399  kBar

mulliken: Mulliken Atomic and Orbital Populations:

Species: Si                  
Atom  Qatom  Qorb
               3s      3s      3py     3pz     3px     3py     3pz     3px     
               3Pdxy   3Pdyz   3Pdz2   3Pdxz   3Pdx2-y2
   1  3.993   0.541   0.624   0.112   0.112   0.112   0.625   0.625   0.625
              0.144   0.144   0.093   0.144   0.093
   2  3.969   0.639   0.574   0.152   0.152   0.152   0.581   0.581   0.581
              0.133   0.133   0.080   0.133   0.080
   3  4.001   0.545   0.620   0.124   0.117   0.124   0.616   0.623   0.616
              0.144   0.143   0.092   0.143   0.092
   4  4.012   0.510   0.640   0.133   0.055   0.133   0.618   0.667   0.618
              0.145   0.150   0.104   0.150   0.090
   5  4.001   0.545   0.620   0.117   0.124   0.124   0.623   0.616   0.616
              0.143   0.143   0.092   0.144   0.092
   6  4.012   0.510   0.640   0.055   0.133   0.133   0.667   0.618   0.618
              0.150   0.150   0.093   0.145   0.100
   7  4.001   0.545   0.620   0.124   0.124   0.117   0.616   0.616   0.623
              0.143   0.144   0.092   0.143   0.092
   8  4.012   0.510   0.640   0.133   0.133   0.055   0.618   0.618   0.667
              0.150   0.145   0.093   0.150   0.100

mulliken: Qtot =       32.000

* Maximum dynamic memory allocated =    97 MB

siesta:                 ==============================
                            Begin CG move =      4
                        ==============================

outcoor: Atomic coordinates (Ang):                          
    0.15099273    0.15099257    0.15099246   1       1  Si
    1.41275804    1.41275801    1.41275816   1       2  Si
    2.79347236    2.79347230    0.05186981   1       3  Si
    3.98781515    3.98781516    1.46079740   1       4  Si
    2.79347231    0.05187055    2.79347219   1       5  Si
    3.98781514    1.46079740    3.98781477   1       6  Si
    0.05187062    2.79347229    2.79347228   1       7  Si
    1.46079721    3.98781506    3.98781489   1       8  Si
 Kpoints in:          108 . Kpoints trimmed:          108

siesta: k-grid: Number of k-points =   108
siesta: k-grid: Cutoff (effective) =    16.021 Ang
siesta: k-grid: Supercell and displacements
siesta: k-grid:    0   0   6      0.500
siesta: k-grid:    0   6   0      0.500
siesta: k-grid:    6   0   0      0.500
Naive supercell factors:     5    5    5

superc: Internal auxiliary supercell:     5 x     5 x     5  =     125
superc: Number of atoms, orbitals, and projectors:   1000  13000  16000

outcell: Unit cell vectors (Ang):
        5.338599   -0.094954   -0.094954
       -0.094954    5.338599   -0.094954
       -0.094954   -0.094954    5.338599

outcell: Cell vector modules (Ang)   :    5.340287    5.340287    5.340287
outcell: Cell angles (23,13,12) (deg):     92.0192     92.0192     92.0192
outcell: Cell volume (Ang**3)        :    152.0074
New_DM. Step:     5
Re-using DM from previous geometry...
Re-using DM without extrapolation (not allowed)
Density Matrix sparsity pattern changed.

InitMesh: MESH =    36 x    36 x    36 =       46656
InitMesh: Mesh cutoff (required, used) =   100.000   125.921 Ry

siesta: iscf   Eharris(eV)      E_KS(eV)   FreeEng(eV)   dDmax  Ef(eV)
siesta:    1     -861.2004     -858.9065     -858.9068  0.0740 -5.6537
siesta:    2     -862.2663     -860.1597     -860.1601  0.1170 -5.6727
siesta:    3     -860.8523     -860.0235     -860.0248  0.0377 -5.6697
siesta:    4     -860.8518     -860.6218     -860.6224  0.0048 -5.6745
siesta:    5     -860.8514     -860.7196     -860.7203  0.0025 -5.6739
siesta:    6     -860.8513     -860.8031     -860.8038  0.0007 -5.6728

siesta: E_KS(eV) =             -860.8246

siesta: Atomic forces (eV/Ang):
----------------------------------------
   Tot   -0.004208   -0.004196   -0.004189
----------------------------------------
   Max    1.697665
   Res    1.192044    sqrt( Sum f_i^2 / 3N )
----------------------------------------
   Max    1.697665    constrained

Stress-tensor-Voigt (kbar):      -78.21      -78.21      -78.21      -58.46      -58.46      -58.46
(Free)E + p*V (eV/cell)     -853.4052
Target enthalpy (eV/cell)     -860.8253

siesta: Stress tensor (static) (eV/Ang**3):
        -0.048814   -0.036487   -0.036487
        -0.036487   -0.048814   -0.036487
        -0.036487   -0.036487   -0.048814

siesta: Pressure (static):         78.20905015  kBar

siesta: Stress tensor (total) (eV/Ang**3):
        -0.048814   -0.036487   -0.036487
        -0.036487   -0.048814   -0.036487
        -0.036487   -0.036487   -0.048814

siesta: Pressure (total):         78.20905015  kBar

mulliken: Mulliken Atomic and Orbital Populations:

Species: Si                  
Atom  Qatom  Qorb
               3s      3s      3py     3pz     3px     3py     3pz     3px     
               3Pdxy   3Pdyz   3Pdz2   3Pdxz   3Pdx2-y2
   1  4.006   0.703   0.545   0.235   0.235   0.235   0.517   0.517   0.517
              0.120   0.120   0.072   0.120   0.072
   2  3.999   0.604   0.593   0.174   0.174   0.174   0.572   0.572   0.572
              0.134   0.134   0.082   0.134   0.082
   3  4.001   0.537   0.625   0.180   0.082   0.180   0.578   0.640   0.578
              0.136   0.142   0.100   0.142   0.081
   4  3.997   0.574   0.606   0.170   0.146   0.170   0.579   0.594   0.579
              0.134   0.135   0.089   0.135   0.084
   5  4.001   0.537   0.625   0.082   0.180   0.180   0.640   0.578   0.578
              0.142   0.142   0.086   0.136   0.095
   6  3.997   0.574   0.606   0.146   0.170   0.170   0.594   0.579   0.579
              0.135   0.135   0.085   0.134   0.087
   7  4.001   0.537   0.625   0.180   0.180   0.082   0.578   0.578   0.640
              0.142   0.136   0.086   0.142   0.095
   8  3.997   0.574   0.606   0.170   0.170   0.146   0.579   0.579   0.594
              0.135   0.134   0.085   0.135   0.087

mulliken: Qtot =       32.000

* Maximum dynamic memory allocated =    97 MB

siesta:                 ==============================
                            Begin CG move =      5
                        ==============================

outcoor: Atomic coordinates (Ang):                          
    0.12668668    0.12668654    0.12668645   1       1  Si
    1.40433323    1.40433321    1.40433333   1       2  Si
    2.78233442    2.78233437    0.04241320   1       3  Si
    4.00390218    4.00390219    1.44255184   1       4  Si
    2.78233438    0.04241382    2.78233428   1       5  Si
    4.00390217    1.44255185    4.00390186   1       6  Si
    0.04241388    2.78233436    2.78233435   1       7  Si
    1.44255169    4.00390210    4.00390196   1       8  Si
 Kpoints in:          108 . Kpoints trimmed:          108

siesta: k-grid: Number of k-points =   108
siesta: k-grid: Cutoff (effective) =    15.882 Ang
siesta: k-grid: Supercell and displacements
siesta: k-grid:    0   0   6      0.500
siesta: k-grid:    0   6   0      0.500
siesta: k-grid:    6   0   0      0.500
Naive supercell factors:     5    5    5

superc: Internal auxiliary supercell:     5 x     5 x     5  =     125
superc: Number of atoms, orbitals, and projectors:   1000  13000  16000

outcell: Unit cell vectors (Ang):
        5.292879   -0.079912   -0.079912
       -0.079912    5.292879   -0.079912
       -0.079912   -0.079912    5.292879

outcell: Cell vector modules (Ang)   :    5.294086    5.294086    5.294085
outcell: Cell angles (23,13,12) (deg):     91.7165     91.7165     91.7165
outcell: Cell volume (Ang**3)        :    148.1753
New_DM. Step:     6
Re-using DM from previous geometry...
Re-using DM without extrapolation (not allowed)
Density Matrix sparsity pattern changed.

InitMesh: MESH =    32 x    32 x    32 =       32768
InitMesh: Mesh cutoff (required, used) =   100.000   101.164 Ry

siesta: iscf   Eharris(eV)      E_KS(eV)   FreeEng(eV)   dDmax  Ef(eV)
siesta:    1     -861.1458     -861.6410     -861.6416  0.0281 -5.7436
siesta:    2     -861.3141     -860.9699     -860.9700  0.0624 -5.7341
siesta:    3     -861.0862     -861.1966     -861.1966  0.0138 -5.7335
siesta:    4     -861.0858     -861.0564     -861.0564  0.0021 -5.7316
siesta:    5     -861.0858     -861.0636     -861.0636  0.0015 -5.7317
siesta:    6     -861.0858     -861.0796     -861.0797  0.0002 -5.7320

siesta: E_KS(eV) =             -861.0826

siesta: Atomic forces (eV/Ang):
----------------------------------------
   Tot    0.000641    0.000640    0.000626
----------------------------------------
   Max    1.034221
   Res    0.895702    sqrt( Sum f_i^2 / 3N )
----------------------------------------
   Max    1.034221    constrained

Stress-tensor-Voigt (kbar):     -101.93     -101.93     -101.93      -40.96      -40.96      -40.96
(Free)E + p*V (eV/cell)     -851.6563
Target enthalpy (eV/cell)     -861.0827

siesta: Stress tensor (static) (eV/Ang**3):
        -0.063616   -0.025566   -0.025566
        -0.025566   -0.063616   -0.025566
        -0.025566   -0.025566   -0.063616

siesta: Pressure (static):        101.92530403  kBar

siesta: Stress tensor (total) (eV/Ang**3):
        -0.063616   -0.025566   -0.025566
        -0.025566   -0.063616   -0.025566
        -0.025566   -0.025566   -0.063616

siesta: Pressure (total):        101.92530403  kBar

mulliken: Mulliken Atomic and Orbital Populations:

Species: Si                  
Atom  Qatom  Qorb
               3s      3s      3py     3pz     3px     3py     3pz     3px     
               3Pdxy   3Pdyz   3Pdz2   3Pdxz   3Pdx2-y2
   1  3.985   0.634   0.577   0.175   0.175   0.175   0.567   0.567   0.567
              0.130   0.130   0.080   0.130   0.080
   2  3.989   0.621   0.582   0.168   0.168   0.168   0.574   0.574   0.574
              0.133   0.133   0.081   0.133   0.081
   3  4.005   0.543   0.621   0.157   0.099   0.157   0.595   0.632   0.595
              0.139   0.143   0.096   0.143   0.086
   4  4.004   0.552   0.617   0.156   0.109   0.156   0.595   0.623   0.595
              0.138   0.141   0.094   0.141   0.086
   5  4.005   0.543   0.621   0.099   0.157   0.157   0.632   0.595   0.595
              0.143   0.143   0.088   0.139   0.093
   6  4.004   0.552   0.617   0.109   0.156   0.156   0.623   0.595   0.595
              0.141   0.141   0.088   0.138   0.092
   7  4.005   0.543   0.621   0.157   0.157   0.099   0.595   0.595   0.632
              0.143   0.139   0.088   0.143   0.093
   8  4.004   0.552   0.617   0.156   0.156   0.109   0.595   0.595   0.623
              0.141   0.138   0.088   0.141   0.092

mulliken: Qtot =       32.000

cgvc: Finished line minimization    1.  Mean atomic displacement =    0.1677

* Maximum dynamic memory allocated =   101 MB

siesta:                 ==============================
                            Begin CG move =      6
                        ==============================

outcoor: Atomic coordinates (Ang):                          
    0.11352230    0.11352222    0.11352214   1       1  Si
    1.48034784    1.48034775    1.48034746   1       2  Si
    2.80532651    2.80532648    0.12140381   1       3  Si
    4.13627228    4.13627230    1.48034259   1       4  Si
    2.80532659    0.12140481    2.80532676   1       5  Si
    4.13627245    1.48034285    4.13627218   1       6  Si
    0.12140482    2.80532659    2.80532671   1       7  Si
    1.48034281    4.13627249    4.13627234   1       8  Si
 Kpoints in:          108 . Kpoints trimmed:          108

siesta: k-grid: Number of k-points =   108
siesta: k-grid: Cutoff (effective) =    16.201 Ang
siesta: k-grid: Supercell and displacements
siesta: k-grid:    0   6   0      0.500
siesta: k-grid:    6   0   0      0.500
siesta: k-grid:    0   0   6      0.500
Naive supercell factors:     5    5    5

superc: Internal auxiliary supercell:     5 x     5 x     5  =     125
superc: Number of atoms, orbitals, and projectors:   1000  13000  16000

outcell: Unit cell vectors (Ang):
        5.399773   -0.057497   -0.057497
       -0.057497    5.399773   -0.057497
       -0.057497   -0.057497    5.399773

outcell: Cell vector modules (Ang)   :    5.400385    5.400385    5.400385
outcell: Cell angles (23,13,12) (deg):     91.2135     91.2135     91.2135
outcell: Cell volume (Ang**3)        :    157.3902
New_DM. Step:     7
Re-using DM from previous geometry...
Re-using DM without extrapolation (not allowed)
Density Matrix sparsity pattern changed.

InitMesh: MESH =    36 x    36 x    36 =       46656
InitMesh: Mesh cutoff (required, used) =   100.000   122.929 Ry

siesta: iscf   Eharris(eV)      E_KS(eV)   FreeEng(eV)   dDmax  Ef(eV)
siesta:    1     -861.8975     -859.6697     -859.6698  0.0683 -5.3970
siesta:    2     -862.1110     -861.6756     -861.6756  0.0902 -5.3933
siesta:    3     -861.8220     -861.4874     -861.4874  0.0123 -5.4008
siesta:    4     -861.8207     -861.7652     -861.7652  0.0027 -5.4033
siesta:    5     -861.8206     -861.7862     -861.7862  0.0015 -5.4029
siesta:    6     -861.8206     -861.8063     -861.8063  0.0003 -5.4022

siesta: E_KS(eV) =             -861.8112

siesta: Atomic forces (eV/Ang):
----------------------------------------
   Tot    0.000533    0.000531    0.000537
----------------------------------------
   Max    0.522713
   Res    0.319172    sqrt( Sum f_i^2 / 3N )
----------------------------------------
   Max    0.522713    constrained

Stress-tensor-Voigt (kbar):      -22.93      -22.93      -22.93      -12.06      -12.06      -12.06
(Free)E + p*V (eV/cell)     -859.5584
Target enthalpy (eV/cell)     -861.8112

siesta: Stress tensor (static) (eV/Ang**3):
        -0.014314   -0.007528   -0.007528
        -0.007528   -0.014314   -0.007528
        -0.007528   -0.007528   -0.014314

siesta: Pressure (static):         22.93330033  kBar

siesta: Stress tensor (total) (eV/Ang**3):
        -0.014314   -0.007528   -0.007528
        -0.007528   -0.014314   -0.007528
        -0.007528   -0.007528   -0.014314

siesta: Pressure (total):         22.93330033  kBar

mulliken: Mulliken Atomic and Orbital Populations:

Species: Si                  
Atom  Qatom  Qorb
               3s      3s      3py     3pz     3px     3py     3pz     3px     
               3Pdxy   3Pdyz   3Pdz2   3Pdxz   3Pdx2-y2
   1  3.995   0.670   0.555   0.226   0.226   0.226   0.526   0.526   0.526
              0.122   0.122   0.073   0.122   0.073
   2  4.006   0.605   0.587   0.197   0.197   0.197   0.557   0.557   0.557
              0.131   0.131   0.080   0.131   0.080
   3  4.002   0.603   0.589   0.204   0.171   0.204   0.552   0.574   0.552
              0.129   0.132   0.084   0.132   0.078
   4  3.997   0.624   0.578   0.201   0.203   0.201   0.551   0.549   0.551
              0.128   0.128   0.078   0.128   0.079
   5  4.002   0.603   0.589   0.171   0.204   0.204   0.574   0.552   0.552
              0.132   0.132   0.080   0.129   0.082
   6  3.997   0.624   0.578   0.203   0.201   0.201   0.549   0.551   0.551
              0.128   0.128   0.079   0.128   0.078
   7  4.002   0.603   0.589   0.204   0.204   0.171   0.552   0.552   0.574
              0.132   0.129   0.080   0.132   0.082
   8  3.997   0.624   0.578   0.201   0.201   0.203   0.551   0.551   0.549
              0.128   0.128   0.079   0.128   0.078

mulliken: Qtot =       32.000

* Maximum dynamic memory allocated =   101 MB

siesta:                 ==============================
                            Begin CG move =      7
                        ==============================

outcoor: Atomic coordinates (Ang):                          
    0.09938704    0.09938700    0.09938693   1       1  Si
    1.55834369    1.55834353    1.55834282   1       2  Si
    2.82651597    2.82651595    0.20165929   1       3  Si
    4.26964680    4.26964683    1.51745643   1       4  Si
    2.82651617    0.20166070    2.82651661   1       5  Si
    4.26964715    1.51745697    4.26964694   1       6  Si
    0.20166065    2.82651618    2.82651645   1       7  Si
    1.51745704    4.26964731    4.26964715   1       8  Si
 Kpoints in:          108 . Kpoints trimmed:          108

siesta: k-grid: Number of k-points =   108
siesta: k-grid: Cutoff (effective) =    16.521 Ang
siesta: k-grid: Supercell and displacements
siesta: k-grid:    6   0   0      0.500
siesta: k-grid:    0   6   0      0.500
siesta: k-grid:    0   0   6      0.500
Naive supercell factors:     5    5    5

superc: Internal auxiliary supercell:     5 x     5 x     5  =     125
superc: Number of atoms, orbitals, and projectors:   1000  13000  16000

outcell: Unit cell vectors (Ang):
        5.506666   -0.035082   -0.035082
       -0.035082    5.506666   -0.035082
       -0.035082   -0.035082    5.506667

outcell: Cell vector modules (Ang)   :    5.506890    5.506890    5.506890
outcell: Cell angles (23,13,12) (deg):     90.7277     90.7277     90.7277
outcell: Cell volume (Ang**3)        :    166.9603
New_DM. Step:     8
Re-using DM from previous geometry...
Re-using DM without extrapolation (not allowed)
Density Matrix sparsity pattern changed.

InitMesh: MESH =    36 x    36 x    36 =       46656
InitMesh: Mesh cutoff (required, used) =   100.000   118.151 Ry

siesta: iscf   Eharris(eV)      E_KS(eV)   FreeEng(eV)   dDmax  Ef(eV)
siesta:    1     -861.4693     -859.8553     -859.8553  0.0547 -5.1705
siesta:    2     -861.7356     -861.2054     -861.2056  0.1065 -5.2475
siesta:    3     -861.3791     -860.9940     -860.9941  0.0145 -5.2029
siesta:    4     -861.3787     -861.3128     -861.3129  0.0037 -5.2052
siesta:    5     -861.3785     -861.3398     -861.3400  0.0019 -5.2048
siesta:    6     -861.3785     -861.3614     -861.3616  0.0005 -5.2043

siesta: E_KS(eV) =             -861.3677

siesta: Atomic forces (eV/Ang):
----------------------------------------
   Tot    0.003146    0.003143    0.003138
----------------------------------------
   Max    1.379666
   Res    0.963303    sqrt( Sum f_i^2 / 3N )
----------------------------------------
   Max    1.379666    constrained

Stress-tensor-Voigt (kbar):       23.82       23.82       23.82        7.98        7.98        7.98
(Free)E + p*V (eV/cell)     -863.8503
Target enthalpy (eV/cell)     -861.3678

siesta: Stress tensor (static) (eV/Ang**3):
         0.014869    0.004978    0.004978
         0.004978    0.014869    0.004978
         0.004978    0.004978    0.014869

siesta: Pressure (static):        -23.82272828  kBar

siesta: Stress tensor (total) (eV/Ang**3):
         0.014869    0.004978    0.004978
         0.004978    0.014869    0.004978
         0.004978    0.004978    0.014869

siesta: Pressure (total):        -23.82272828  kBar

mulliken: Mulliken Atomic and Orbital Populations:

Species: Si                  
Atom  Qatom  Qorb
               3s      3s      3py     3pz     3px     3py     3pz     3px     
               3Pdxy   3Pdyz   3Pdz2   3Pdxz   3Pdx2-y2
   1  4.000   0.680   0.554   0.262   0.262   0.262   0.497   0.497   0.497
              0.117   0.117   0.070   0.117   0.070
   2  4.029   0.561   0.612   0.215   0.215   0.215   0.550   0.550   0.550
              0.131   0.131   0.084   0.131   0.084
   3  3.996   0.645   0.569   0.246   0.233   0.246   0.513   0.521   0.513
              0.120   0.121   0.075   0.121   0.072
   4  3.994   0.688   0.549   0.247   0.294   0.247   0.505   0.472   0.505
              0.121   0.114   0.066   0.114   0.072
   5  3.996   0.645   0.569   0.233   0.246   0.246   0.521   0.513   0.513
              0.121   0.121   0.073   0.120   0.075
   6  3.994   0.688   0.549   0.294   0.247   0.247   0.472   0.505   0.505
              0.114   0.114   0.071   0.121   0.068
   7  3.996   0.645   0.569   0.246   0.246   0.233   0.513   0.513   0.521
              0.121   0.120   0.073   0.121   0.075
   8  3.994   0.688   0.549   0.247   0.247   0.294   0.505   0.505   0.472
              0.114   0.121   0.071   0.114   0.068

mulliken: Qtot =       32.000

* Maximum dynamic memory allocated =   101 MB

siesta:                 ==============================
                            Begin CG move =      8
                        ==============================

outcoor: Atomic coordinates (Ang):                          
    0.11222872    0.11222863    0.11222856   1       1  Si
    1.48763000    1.48762990    1.48762958   1       2  Si
    2.80740500    2.80740496    0.12893003   1       3  Si
    4.14882686    4.14882688    1.48387703   1       4  Si
    2.80740508    0.12893107    2.80740528   1       5  Si
    4.14882704    1.48387732    4.14882678   1       6  Si
    0.12893107    2.80740508    2.80740522   1       7  Si
    1.48387728    4.14882709    4.14882695   1       8  Si
 Kpoints in:          108 . Kpoints trimmed:          108

siesta: k-grid: Number of k-points =   108
siesta: k-grid: Cutoff (effective) =    16.231 Ang
siesta: k-grid: Supercell and displacements
siesta: k-grid:    0   6   0      0.500
siesta: k-grid:    6   0   0      0.500
siesta: k-grid:    0   0   6      0.500
Naive supercell factors:     5    5    5

superc: Internal auxiliary supercell:     5 x     5 x     5  =     125
superc: Number of atoms, orbitals, and projectors:   1000  13000  16000

outcell: Unit cell vectors (Ang):
        5.409869   -0.055380   -0.055380
       -0.055380    5.409869   -0.055380
       -0.055380   -0.055380    5.409869

outcell: Cell vector modules (Ang)   :    5.410436    5.410436    5.410436
outcell: Cell angles (23,13,12) (deg):     91.1669     91.1669     91.1669
outcell: Cell volume (Ang**3)        :    158.2788
New_DM. Step:     9
Re-using DM from previous geometry...
Re-using DM without extrapolation (not allowed)
Density Matrix sparsity pattern changed.

InitMesh: MESH =    36 x    36 x    36 =       46656
InitMesh: Mesh cutoff (required, used) =   100.000   122.464 Ry

siesta: iscf   Eharris(eV)      E_KS(eV)   FreeEng(eV)   dDmax  Ef(eV)
siesta:    1     -861.8900     -863.0685     -863.0686  0.0469 -5.3822
siesta:    2     -862.0705     -861.7025     -861.7025  0.0799 -5.3862
siesta:    3     -861.8266     -861.9852     -861.9853  0.0123 -5.3756
siesta:    4     -861.8257     -861.7858     -861.7858  0.0034 -5.3722
siesta:    5     -861.8256     -861.7944     -861.7944  0.0021 -5.3725
siesta:    6     -861.8256     -861.8175     -861.8175  0.0004 -5.3730

siesta: E_KS(eV) =             -861.8228

siesta: Atomic forces (eV/Ang):
----------------------------------------
   Tot    0.003730    0.003732    0.003718
----------------------------------------
   Max    0.612168
   Res    0.351853    sqrt( Sum f_i^2 / 3N )
----------------------------------------
   Max    0.612168    constrained

Stress-tensor-Voigt (kbar):      -17.33      -17.33      -17.33       -9.76       -9.76       -9.76
(Free)E + p*V (eV/cell)     -860.1111
Target enthalpy (eV/cell)     -861.8228

siesta: Stress tensor (static) (eV/Ang**3):
        -0.010814   -0.006093   -0.006092
        -0.006093   -0.010814   -0.006092
        -0.006092   -0.006092   -0.010814

siesta: Pressure (static):         17.32624658  kBar

siesta: Stress tensor (total) (eV/Ang**3):
        -0.010814   -0.006093   -0.006092
        -0.006093   -0.010814   -0.006092
        -0.006092   -0.006092   -0.010814

siesta: Pressure (total):         17.32624658  kBar

mulliken: Mulliken Atomic and Orbital Populations:

Species: Si                  
Atom  Qatom  Qorb
               3s      3s      3py     3pz     3px     3py     3pz     3px     
               3Pdxy   3Pdyz   3Pdz2   3Pdxz   3Pdx2-y2
   1  3.996   0.672   0.554   0.230   0.230   0.230   0.523   0.523   0.523
              0.121   0.121   0.073   0.121   0.073
   2  4.007   0.602   0.588   0.199   0.199   0.199   0.556   0.556   0.556
              0.130   0.130   0.080   0.130   0.080
   3  4.002   0.608   0.586   0.208   0.176   0.208   0.548   0.569   0.548
              0.128   0.131   0.083   0.131   0.078
   4  3.997   0.631   0.575   0.205   0.212   0.205   0.546   0.541   0.546
              0.128   0.126   0.077   0.126   0.078
   5  4.002   0.608   0.586   0.176   0.208   0.208   0.569   0.548   0.548
              0.131   0.131   0.079   0.128   0.081
   6  3.997   0.631   0.575   0.212   0.205   0.205   0.541   0.546   0.546
              0.126   0.126   0.078   0.128   0.077
   7  4.002   0.608   0.586   0.208   0.208   0.176   0.548   0.548   0.569
              0.131   0.128   0.079   0.131   0.081
   8  3.997   0.631   0.575   0.205   0.205   0.212   0.546   0.546   0.541
              0.126   0.128   0.078   0.126   0.077

mulliken: Qtot =       32.000

cgvc: Finished line minimization    2.  Mean atomic displacement =    0.1835

* Maximum dynamic memory allocated =   101 MB

siesta:                 ==============================
                            Begin CG move =      9
                        ==============================

outcoor: Atomic coordinates (Ang):                          
    0.13876946    0.13876915    0.13876892   1       1  Si
    1.44517498    1.44517492    1.44517562   1       2  Si
    2.90728179    2.90728182    0.15051260   1       3  Si
    4.28550171    4.28550184    1.47404973   1       4  Si
    2.90728079    0.15051285    2.90727944   1       5  Si
    4.28550196    1.47404970    4.28550142   1       6  Si
    0.15051240    2.90728131    2.90727926   1       7  Si
    1.47404998    4.28550161    4.28550126   1       8  Si
 Kpoints in:          108 . Kpoints trimmed:          108

siesta: k-grid: Number of k-points =   108
siesta: k-grid: Cutoff (effective) =    16.466 Ang
siesta: k-grid: Supercell and displacements
siesta: k-grid:    6   0   0      0.500
siesta: k-grid:    0   6   0      0.500
siesta: k-grid:    0   0   6      0.500
Naive supercell factors:     5    5    5

superc: Internal auxiliary supercell:     5 x     5 x     5  =     125
superc: Number of atoms, orbitals, and projectors:   1000  13000  16000

outcell: Unit cell vectors (Ang):
        5.488642   -0.022302   -0.022303
       -0.022302    5.488642   -0.022303
       -0.022303   -0.022303    5.488642

outcell: Cell vector modules (Ang)   :    5.488732    5.488733    5.488733
outcell: Cell angles (23,13,12) (deg):     90.4647     90.4647     90.4647
outcell: Cell volume (Ang**3)        :    165.3382
New_DM. Step:    10
Re-using DM from previous geometry...
Re-using DM without extrapolation (not allowed)
Density Matrix sparsity pattern changed.

InitMesh: MESH =    36 x    36 x    36 =       46656
InitMesh: Mesh cutoff (required, used) =   100.000   118.910 Ry

siesta: iscf   Eharris(eV)      E_KS(eV)   FreeEng(eV)   dDmax  Ef(eV)
siesta:    1     -862.0157     -860.4241     -860.4241  0.0437 -5.2839
siesta:    2     -863.0332     -861.0937     -861.0937  0.2021 -5.3630
siesta:    3     -861.7123     -861.0425     -861.0425  0.0346 -5.3116
siesta:    4     -861.7124     -861.5329     -861.5329  0.0066 -5.3138
siesta:    5     -861.7120     -861.6176     -861.6176  0.0019 -5.3131
siesta:    6     -861.7120     -861.6632     -861.6632  0.0008 -5.3127

siesta: E_KS(eV) =             -861.6940

siesta: Atomic forces (eV/Ang):
----------------------------------------
   Tot   -0.002709   -0.002709   -0.002712
----------------------------------------
   Max    1.213697
   Res    0.605313    sqrt( Sum f_i^2 / 3N )
----------------------------------------
   Max    1.213697    constrained

Stress-tensor-Voigt (kbar):       18.56       18.56       18.56      -13.16      -13.16      -13.16
(Free)E + p*V (eV/cell)     -863.6094
Target enthalpy (eV/cell)     -861.6940

siesta: Stress tensor (static) (eV/Ang**3):
         0.011585   -0.008215   -0.008215
        -0.008215    0.011584   -0.008215
        -0.008215   -0.008215    0.011585

siesta: Pressure (static):        -18.56062943  kBar

siesta: Stress tensor (total) (eV/Ang**3):
         0.011585   -0.008215   -0.008215
        -0.008215    0.011584   -0.008215
        -0.008215   -0.008215    0.011585

siesta: Pressure (total):        -18.56062943  kBar

mulliken: Mulliken Atomic and Orbital Populations:

Species: Si                  
Atom  Qatom  Qorb
               3s      3s      3py     3pz     3px     3py     3pz     3px     
               3Pdxy   3Pdyz   3Pdz2   3Pdxz   3Pdx2-y2
   1  4.016   0.562   0.610   0.197   0.197   0.197   0.562   0.562   0.562
              0.133   0.133   0.084   0.133   0.084
   2  4.000   0.673   0.554   0.251   0.251   0.251   0.508   0.508   0.508
              0.118   0.118   0.071   0.118   0.071
   3  3.997   0.682   0.550   0.240   0.289   0.240   0.513   0.479   0.513
              0.122   0.115   0.066   0.115   0.074
   4  3.997   0.645   0.568   0.238   0.229   0.238   0.520   0.526   0.520
              0.121   0.122   0.075   0.122   0.073
   5  3.997   0.682   0.550   0.289   0.240   0.240   0.479   0.513   0.513
              0.115   0.115   0.072   0.122   0.068
   6  3.997   0.645   0.568   0.229   0.238   0.238   0.526   0.520   0.520
              0.122   0.122   0.073   0.121   0.074
   7  3.997   0.682   0.550   0.240   0.240   0.289   0.513   0.513   0.479
              0.115   0.122   0.072   0.115   0.068
   8  3.997   0.645   0.568   0.238   0.238   0.229   0.520   0.520   0.526
              0.122   0.121   0.073   0.122   0.074

mulliken: Qtot =       32.000

* Maximum dynamic memory allocated =   101 MB

siesta:                 ==============================
                            Begin CG move =     10
                        ==============================

outcoor: Atomic coordinates (Ang):                          
    0.12259383    0.12259366    0.12259352   1       1  Si
    1.47134016    1.47134007    1.47134015   1       2  Si
    2.84679961    2.84679960    0.13741788   1       3  Si
    4.20289937    4.20289943    1.48015652   1       4  Si
    2.84679928    0.13741862    2.84679886   1       5  Si
    4.20289958    1.48015668    4.20289921   1       6  Si
    0.13741844    2.84679948    2.84679876   1       7  Si
    1.48015677    4.20289947    4.20289924   1       8  Si
 Kpoints in:          108 . Kpoints trimmed:          108

siesta: k-grid: Number of k-points =   108
siesta: k-grid: Cutoff (effective) =    16.324 Ang
siesta: k-grid: Supercell and displacements
siesta: k-grid:    0   6   0      0.500
siesta: k-grid:    6   0   0      0.500
siesta: k-grid:    0   0   6      0.500
Naive supercell factors:     5    5    5

superc: Internal auxiliary supercell:     5 x     5 x     5  =     125
superc: Number of atoms, orbitals, and projectors:   1000  13000  16000

outcell: Unit cell vectors (Ang):
        5.441076   -0.042276   -0.042276
       -0.042276    5.441076   -0.042276
       -0.042276   -0.042276    5.441077

outcell: Cell vector modules (Ang)   :    5.441405    5.441405    5.441405
outcell: Cell angles (23,13,12) (deg):     90.8868     90.8868     90.8868
outcell: Cell volume (Ang**3)        :    161.0554
New_DM. Step:    11
Re-using DM from previous geometry...
Re-using DM without extrapolation (not allowed)
Density Matrix sparsity pattern changed.

InitMesh: MESH =    36 x    36 x    36 =       46656
InitMesh: Mesh cutoff (required, used) =   100.000   121.031 Ry

siesta: iscf   Eharris(eV)      E_KS(eV)   FreeEng(eV)   dDmax  Ef(eV)
siesta:    1     -862.0366     -862.4806     -862.4806  0.0243 -5.3600
siesta:    2     -862.3601     -861.7277     -861.7277  0.0968 -5.3625
siesta:    3     -861.9355     -862.0555     -862.0555  0.0181 -5.3463
siesta:    4     -861.9352     -861.8914     -861.8914  0.0019 -5.3421
siesta:    5     -861.9351     -861.9009     -861.9009  0.0013 -5.3425
siesta:    6     -861.9351     -861.9243     -861.9243  0.0003 -5.3433

siesta: E_KS(eV) =             -861.9305

siesta: Atomic forces (eV/Ang):
----------------------------------------
   Tot   -0.003536   -0.003528   -0.003548
----------------------------------------
   Max    0.117302
   Res    0.060133    sqrt( Sum f_i^2 / 3N )
----------------------------------------
   Max    0.117302    constrained

Stress-tensor-Voigt (kbar):       -0.37       -0.37       -0.37      -11.61      -11.61      -11.61
(Free)E + p*V (eV/cell)     -861.8933
Target enthalpy (eV/cell)     -861.9305

siesta: Stress tensor (static) (eV/Ang**3):
        -0.000231   -0.007247   -0.007247
        -0.007247   -0.000231   -0.007247
        -0.007247   -0.007247   -0.000231

siesta: Pressure (static):          0.37026116  kBar

siesta: Stress tensor (total) (eV/Ang**3):
        -0.000231   -0.007247   -0.007247
        -0.007247   -0.000231   -0.007247
        -0.007247   -0.007247   -0.000231

siesta: Pressure (total):          0.37026116  kBar

mulliken: Mulliken Atomic and Orbital Populations:

Species: Si                  
Atom  Qatom  Qorb
               3s      3s      3py     3pz     3px     3py     3pz     3px     
               3Pdxy   3Pdyz   3Pdz2   3Pdxz   3Pdx2-y2
   1  4.001   0.630   0.575   0.217   0.217   0.217   0.538   0.538   0.538
              0.125   0.125   0.077   0.125   0.077
   2  3.999   0.634   0.573   0.216   0.216   0.216   0.538   0.538   0.538
              0.126   0.126   0.076   0.126   0.076
   3  4.000   0.640   0.570   0.219   0.223   0.219   0.535   0.533   0.535
              0.125   0.125   0.075   0.125   0.076
   4  4.000   0.638   0.571   0.222   0.221   0.222   0.534   0.534   0.534
              0.125   0.124   0.076   0.124   0.076
   5  4.000   0.640   0.570   0.223   0.219   0.219   0.533   0.535   0.535
              0.125   0.125   0.076   0.125   0.075
   6  4.000   0.638   0.571   0.221   0.222   0.222   0.534   0.534   0.534
              0.124   0.124   0.076   0.125   0.076
   7  4.000   0.640   0.570   0.219   0.219   0.223   0.535   0.535   0.533
              0.125   0.125   0.076   0.125   0.075
   8  4.000   0.638   0.571   0.222   0.222   0.221   0.534   0.534   0.534
              0.124   0.125   0.076   0.124   0.076

mulliken: Qtot =       32.000

cgvc: Finished line minimization    3.  Mean atomic displacement =    0.0727

* Maximum dynamic memory allocated =   101 MB

siesta:                 ==============================
                            Begin CG move =     11
                        ==============================

outcoor: Atomic coordinates (Ang):                          
    0.13641057    0.13641122    0.13641290   1       1  Si
    1.51284257    1.51284308    1.51283815   1       2  Si
    2.89115205    2.89115167    0.16254639   1       3  Si
    4.25674602    4.25674649    1.56402716   1       4  Si
    2.89115445    0.16254684    2.89115530   1       5  Si
    4.25674577    1.56402985    4.25674481   1       6  Si
    0.16254684    2.89115490    2.89115618   1       7  Si
    1.56402989    4.25674581    4.25674431   1       8  Si
 Kpoints in:          108 . Kpoints trimmed:          108

siesta: k-grid: Number of k-points =   108
siesta: k-grid: Cutoff (effective) =    16.350 Ang
siesta: k-grid: Supercell and displacements
siesta: k-grid:    6   0   0      0.500
siesta: k-grid:    0   6   0      0.500
siesta: k-grid:    0   0   6      0.500
Naive supercell factors:     5    5    5

superc: Internal auxiliary supercell:     5 x     5 x     5  =     125
superc: Number of atoms, orbitals, and projectors:   1000  13000  16000

outcell: Unit cell vectors (Ang):
        5.449850    0.009267    0.009268
        0.009267    5.449850    0.009268
        0.009268    0.009268    5.449850

outcell: Cell vector modules (Ang)   :    5.449866    5.449866    5.449866
outcell: Cell angles (23,13,12) (deg):     89.8050     89.8050     89.8050
outcell: Cell volume (Ang**3)        :    161.8639
New_DM. Step:    12
Re-using DM from previous geometry...
Re-using DM without extrapolation (not allowed)
Density Matrix sparsity pattern changed.

InitMesh: MESH =    36 x    36 x    36 =       46656
InitMesh: Mesh cutoff (required, used) =   100.000   120.599 Ry

siesta: iscf   Eharris(eV)      E_KS(eV)   FreeEng(eV)   dDmax  Ef(eV)
siesta:    1     -861.9507     -861.7707     -861.7707  0.0200 -5.3082
siesta:    2     -861.9814     -861.9205     -861.9205  0.0254 -5.3258
siesta:    3     -861.9407     -861.9066     -861.9066  0.0039 -5.3158
siesta:    4     -861.9406     -861.9331     -861.9331  0.0003 -5.3155

siesta: E_KS(eV) =             -861.9354

siesta: Atomic forces (eV/Ang):
----------------------------------------
   Tot    0.004235    0.004230    0.004266
----------------------------------------
   Max    0.431939
   Res    0.224849    sqrt( Sum f_i^2 / 3N )
----------------------------------------
   Max    0.431939    constrained

Stress-tensor-Voigt (kbar):        3.53        3.53        3.53        7.43        7.43        7.43
(Free)E + p*V (eV/cell)     -862.2923
Target enthalpy (eV/cell)     -861.9354

siesta: Stress tensor (static) (eV/Ang**3):
         0.002205    0.004635    0.004636
         0.004635    0.002205    0.004636
         0.004636    0.004636    0.002205

siesta: Pressure (static):         -3.53288551  kBar

siesta: Stress tensor (total) (eV/Ang**3):
         0.002205    0.004635    0.004636
         0.004635    0.002205    0.004636
         0.004636    0.004636    0.002205

siesta: Pressure (total):         -3.53288551  kBar

mulliken: Mulliken Atomic and Orbital Populations:

Species: Si                  
Atom  Qatom  Qorb
               3s      3s      3py     3pz     3px     3py     3pz     3px     
               3Pdxy   3Pdyz   3Pdz2   3Pdxz   3Pdx2-y2
   1  3.999   0.650   0.564   0.228   0.228   0.228   0.528   0.528   0.528
              0.123   0.123   0.074   0.123   0.074
   2  3.999   0.660   0.559   0.233   0.233   0.233   0.523   0.523   0.523
              0.122   0.122   0.073   0.122   0.073
   3  4.000   0.638   0.570   0.224   0.220   0.224   0.532   0.535   0.532
              0.124   0.124   0.076   0.124   0.075
   4  4.000   0.635   0.571   0.224   0.210   0.224   0.533   0.542   0.533
              0.124   0.125   0.077   0.125   0.075
   5  4.000   0.638   0.570   0.220   0.224   0.224   0.535   0.532   0.532
              0.124   0.124   0.075   0.124   0.076
   6  4.000   0.635   0.571   0.210   0.224   0.224   0.542   0.533   0.533
              0.125   0.125   0.075   0.124   0.076
   7  4.000   0.638   0.570   0.224   0.224   0.220   0.532   0.532   0.535
              0.124   0.124   0.075   0.124   0.076
   8  4.000   0.635   0.571   0.224   0.224   0.210   0.533   0.533   0.542
              0.125   0.124   0.075   0.125   0.076

mulliken: Qtot =       32.000

* Maximum dynamic memory allocated =   101 MB

siesta:                 ==============================
                            Begin CG move =     12
                        ==============================

outcoor: Atomic coordinates (Ang):                          
    0.12951056    0.12951080    0.12951159   1       1  Si
    1.49223429    1.49223451    1.49223205   1       2  Si
    2.86922742    2.86922722    0.15006269   1       3  Si
    4.23009924    4.23009950    1.52252890   1       4  Si
    2.86922845    0.15006327    2.86922868   1       5  Si
    4.23009921    1.52253035    4.23009854   1       6  Si
    0.15006318    2.86922878    2.86922907   1       7  Si
    1.52253041    4.23009918    4.23009830   1       8  Si
 Kpoints in:          108 . Kpoints trimmed:          108

siesta: k-grid: Number of k-points =   108
siesta: k-grid: Cutoff (effective) =    16.337 Ang
siesta: k-grid: Supercell and displacements
siesta: k-grid:    6   0   0      0.500
siesta: k-grid:    0   6   0      0.500
siesta: k-grid:    0   0   6      0.500
Naive supercell factors:     5    5    5

superc: Internal auxiliary supercell:     5 x     5 x     5  =     125
superc: Number of atoms, orbitals, and projectors:   1000  13000  16000

outcell: Unit cell vectors (Ang):
        5.445505   -0.016258   -0.016258
       -0.016258    5.445505   -0.016258
       -0.016258   -0.016258    5.445505

outcell: Cell vector modules (Ang)   :    5.445554    5.445554    5.445554
outcell: Cell angles (23,13,12) (deg):     90.3416     90.3416     90.3416
outcell: Cell volume (Ang**3)        :    161.4741
New_DM. Step:    13
Re-using DM from previous geometry...
Re-using DM without extrapolation (not allowed)
Density Matrix sparsity pattern changed.

InitMesh: MESH =    36 x    36 x    36 =       46656
InitMesh: Mesh cutoff (required, used) =   100.000   120.796 Ry

siesta: iscf   Eharris(eV)      E_KS(eV)   FreeEng(eV)   dDmax  Ef(eV)
siesta:    1     -861.9601     -862.0138     -862.0138  0.0072 -5.3222
siesta:    2     -861.9673     -861.9527     -861.9527  0.0129 -5.3181
siesta:    3     -861.9575     -861.9636     -861.9636  0.0018 -5.3198
siesta:    4     -861.9575     -861.9557     -861.9557  0.0002 -5.3197

siesta: E_KS(eV) =             -861.9562

siesta: Atomic forces (eV/Ang):
----------------------------------------
   Tot   -0.004436   -0.004432   -0.004428
----------------------------------------
   Max    0.189502
   Res    0.109065    sqrt( Sum f_i^2 / 3N )
----------------------------------------
   Max    0.189502    constrained

Stress-tensor-Voigt (kbar):        1.98        1.98        1.98       -1.75       -1.75       -1.75
(Free)E + p*V (eV/cell)     -862.1553
Target enthalpy (eV/cell)     -861.9562

siesta: Stress tensor (static) (eV/Ang**3):
         0.001233   -0.001090   -0.001090
        -0.001090    0.001233   -0.001090
        -0.001090   -0.001090    0.001233

siesta: Pressure (static):         -1.97526173  kBar

siesta: Stress tensor (total) (eV/Ang**3):
         0.001233   -0.001090   -0.001090
        -0.001090    0.001233   -0.001090
        -0.001090   -0.001090    0.001233

siesta: Pressure (total):         -1.97526173  kBar

mulliken: Mulliken Atomic and Orbital Populations:

Species: Si                  
Atom  Qatom  Qorb
               3s      3s      3py     3pz     3px     3py     3pz     3px     
               3Pdxy   3Pdyz   3Pdz2   3Pdxz   3Pdx2-y2
   1  4.000   0.639   0.570   0.222   0.222   0.222   0.533   0.533   0.533
              0.124   0.124   0.075   0.124   0.075
   2  4.000   0.647   0.565   0.225   0.225   0.225   0.531   0.531   0.531
              0.124   0.124   0.075   0.124   0.075
   3  4.000   0.639   0.570   0.221   0.222   0.221   0.534   0.534   0.534
              0.124   0.124   0.075   0.124   0.075
   4  4.000   0.637   0.571   0.223   0.216   0.223   0.534   0.538   0.534
              0.124   0.125   0.076   0.125   0.075
   5  4.000   0.639   0.570   0.222   0.221   0.221   0.534   0.534   0.534
              0.124   0.124   0.075   0.124   0.075
   6  4.000   0.637   0.571   0.216   0.223   0.223   0.538   0.534   0.534
              0.125   0.125   0.076   0.124   0.076
   7  4.000   0.639   0.570   0.221   0.221   0.222   0.534   0.534   0.534
              0.124   0.124   0.075   0.124   0.075
   8  4.000   0.637   0.571   0.223   0.223   0.216   0.534   0.534   0.538
              0.125   0.124   0.076   0.125   0.076

mulliken: Qtot =       32.000

cgvc: Finished line minimization    4.  Mean atomic displacement =    0.0367

* Maximum dynamic memory allocated =   101 MB

siesta:                 ==============================
                            Begin CG move =     13
                        ==============================

outcoor: Atomic coordinates (Ang):                          
    0.14386689    0.14386734    0.14386636   1       1  Si
    1.50927908    1.50927947    1.50927839   1       2  Si
    2.88854299    2.88854295    0.17354920   1       3  Si
    4.24555613    4.24555636    1.54463615   1       4  Si
    2.88854362    0.17355166    2.88854246   1       5  Si
    4.24555586    1.54463686    4.24555584   1       6  Si
    0.17355129    2.88854399    2.88854288   1       7  Si
    1.54463691    4.24555599    4.24555586   1       8  Si
 Kpoints in:          108 . Kpoints trimmed:          108

siesta: k-grid: Number of k-points =   108
siesta: k-grid: Cutoff (effective) =    16.340 Ang
siesta: k-grid: Supercell and displacements
siesta: k-grid:    6   0   0      0.500
siesta: k-grid:    0   6   0      0.500
siesta: k-grid:    0   0   6      0.500
Naive supercell factors:     5    5    5

superc: Internal auxiliary supercell:     5 x     5 x     5  =     125
superc: Number of atoms, orbitals, and projectors:   1000  13000  16000

outcell: Unit cell vectors (Ang):
        5.446505    0.006010    0.006009
        0.006010    5.446505    0.006009
        0.006009    0.006009    5.446505

outcell: Cell vector modules (Ang)   :    5.446512    5.446512    5.446512
outcell: Cell angles (23,13,12) (deg):     89.8735     89.8735     89.8735
outcell: Cell volume (Ang**3)        :    161.5668
New_DM. Step:    14
Re-using DM from previous geometry...
Re-using DM without extrapolation (not allowed)
Density Matrix sparsity pattern changed.

InitMesh: MESH =    36 x    36 x    36 =       46656
InitMesh: Mesh cutoff (required, used) =   100.000   120.746 Ry

siesta: iscf   Eharris(eV)      E_KS(eV)   FreeEng(eV)   dDmax  Ef(eV)
siesta:    1     -861.9680     -861.9397     -861.9397  0.0194 -5.3338
siesta:    2     -861.9684     -861.9664     -861.9664  0.0051 -5.3336
siesta:    3     -861.9672     -861.9662     -861.9662  0.0005 -5.3338

siesta: E_KS(eV) =             -861.9668

siesta: Atomic forces (eV/Ang):
----------------------------------------
   Tot    0.001417    0.001415    0.001418
----------------------------------------
   Max    0.093672
   Res    0.056250    sqrt( Sum f_i^2 / 3N )
----------------------------------------
   Max    0.093672    constrained

Stress-tensor-Voigt (kbar):        2.62        2.62        2.62        1.18        1.18        1.18
(Free)E + p*V (eV/cell)     -862.2308
Target enthalpy (eV/cell)     -861.9668

siesta: Stress tensor (static) (eV/Ang**3):
         0.001634    0.000739    0.000739
         0.000739    0.001634    0.000739
         0.000739    0.000739    0.001634

siesta: Pressure (static):         -2.61782474  kBar

siesta: Stress tensor (total) (eV/Ang**3):
         0.001634    0.000739    0.000739
         0.000739    0.001634    0.000739
         0.000739    0.000739    0.001634

siesta: Pressure (total):         -2.61782474  kBar

mulliken: Mulliken Atomic and Orbital Populations:

Species: Si                  
Atom  Qatom  Qorb
               3s      3s      3py     3pz     3px     3py     3pz     3px     
               3Pdxy   3Pdyz   3Pdz2   3Pdxz   3Pdx2-y2
   1  3.999   0.646   0.566   0.225   0.225   0.225   0.531   0.531   0.531
              0.124   0.124   0.075   0.124   0.075
   2  4.000   0.648   0.565   0.226   0.226   0.226   0.530   0.530   0.530
              0.123   0.123   0.074   0.123   0.074
   3  4.000   0.638   0.570   0.223   0.218   0.223   0.534   0.536   0.534
              0.124   0.125   0.076   0.125   0.075
   4  4.000   0.638   0.570   0.222   0.217   0.222   0.534   0.538   0.534
              0.124   0.125   0.076   0.125   0.075
   5  4.000   0.638   0.570   0.218   0.223   0.223   0.536   0.534   0.534
              0.125   0.125   0.075   0.124   0.076
   6  4.000   0.638   0.570   0.217   0.222   0.222   0.538   0.534   0.534
              0.125   0.125   0.075   0.124   0.076
   7  4.000   0.638   0.570   0.223   0.223   0.218   0.534   0.534   0.536
              0.125   0.124   0.075   0.125   0.076
   8  4.000   0.638   0.570   0.222   0.222   0.217   0.534   0.534   0.538
              0.125   0.124   0.075   0.125   0.076

mulliken: Qtot =       32.000

* Maximum dynamic memory allocated =   101 MB

siesta:                 ==============================
                            Begin CG move =     14
                        ==============================

outcoor: Atomic coordinates (Ang):                          
    0.14357483    0.14357528    0.14357434   1       1  Si
    1.50893419    1.50893458    1.50893347   1       2  Si
    2.88815247    2.88815243    0.17307397   1       3  Si
    4.24524585    4.24524608    1.54419129   1       4  Si
    2.88815311    0.17307640    2.88815198   1       5  Si
    4.24524558    1.54419201    4.24524555   1       6  Si
    0.17307603    2.88815348    2.88815239   1       7  Si
    1.54419207    4.24524571    4.24524556   1       8  Si
 Kpoints in:          108 . Kpoints trimmed:          108

siesta: k-grid: Number of k-points =   108
siesta: k-grid: Cutoff (effective) =    16.339 Ang
[...]
         73.46  86.54  89.24  90.68
  93  1 -16.59 -15.90 -14.73 -14.38 -12.52 -12.12 -10.69  -9.96  -9.68  -9.63
         -8.57  -8.34  -8.12  -7.87  -7.61  -6.66  -3.53  -3.51  -3.03  -2.40
         -2.16  -1.88  -1.87  -1.07  -1.04  -0.88  -0.65  -0.53   0.45   0.46
          1.13   1.90   1.92   1.96   2.55   3.47   3.93   3.97   4.59   5.57
          5.68   5.69   7.48   7.83   8.20   8.49   8.90   9.27   9.49  10.15
         10.42  10.99  11.07  11.32  11.45  11.76  12.04  12.43  13.03  13.34
         14.10  14.30  14.54  14.64  14.70  15.73  16.21  16.44  16.47  17.19
         17.72  17.88  18.74  18.94  19.50  20.82  21.92  22.31  23.30  23.45
         23.86  24.05  24.81  25.22  26.49  26.63  33.08  37.85  39.12  41.26
         44.32  54.44  54.71  56.88  58.65  64.19  65.83  67.87  68.05  69.27
         73.52  86.59  89.30  90.63
  94  1 -16.38 -15.72 -14.80 -14.79 -12.45 -12.45 -11.39 -10.58  -9.19  -9.18
         -8.14  -7.85  -7.84  -7.52  -7.00  -6.97  -3.64  -3.40  -3.27  -3.27
         -2.32  -1.69  -1.69  -1.50  -1.39  -0.68  -0.54   0.32   0.33   0.45
          0.69   0.69   2.74   2.75   3.23   3.24   4.78   4.91   5.05   5.34
          5.40   5.40   6.45   6.45   7.24   8.13   8.79   9.16   9.17   9.18
          9.32   9.34  11.10  11.43  11.43  11.80  13.10  13.33  13.52  13.53
         13.64  14.78  15.04  15.04  16.23  16.24  16.68  16.74  17.28  17.50
         17.51  17.93  17.93  19.28  19.29  19.32  20.91  22.28  22.44  23.97
         24.63  24.63  25.48  27.51  28.15  28.15  32.71  33.54  36.55  36.55
         41.89  49.41  56.27  56.29  57.33  62.30  64.37  68.96  68.96  70.27
         81.62  86.95  87.03  94.77
  95  1 -15.97 -15.41 -15.40 -15.04 -12.48 -12.08 -12.08 -11.43  -8.71  -8.27
         -8.27  -7.55  -7.29  -7.25  -7.25  -6.68  -3.51  -3.48  -3.09  -3.08
         -2.40  -2.40  -2.02  -1.99  -1.55  -1.18  -1.04  -1.04   1.21   1.21
          2.03   2.21   2.40   3.07   3.44   3.88   3.89   4.26   4.26   4.50
          5.14   6.94   6.96   7.15   7.15   7.67   7.99   8.62   8.82   8.84
          8.98   9.24   9.30  10.09  10.52  10.52  13.87  14.11  14.11  15.11
         15.11  15.17  15.60  15.86  15.91  16.00  16.60  16.63  17.78  18.42
         18.48  18.49  19.10  19.10  19.45  19.93  20.60  20.62  21.30  21.95
         27.05  27.28  27.29  29.02  29.15  32.61  32.63  34.74  40.01  41.82
         41.84  48.16  55.80  55.87  58.76  59.70  64.98  76.54  76.57  80.88
         82.02  82.08  90.39  94.64
  96  1 -15.96 -15.41 -15.40 -15.04 -12.48 -12.08 -12.07 -11.43  -8.71  -8.28
         -8.27  -7.55  -7.29  -7.25  -7.25  -6.68  -3.52  -3.48  -3.09  -3.08
         -2.40  -2.39  -2.03  -1.99  -1.55  -1.18  -1.04  -1.03   1.22   1.23
          2.02   2.20   2.42   3.05   3.43   3.88   3.88   4.25   4.26   4.49
          5.14   6.94   6.94   7.12   7.14   7.66   8.01   8.61   8.81   8.83
          8.98   9.26   9.33  10.10  10.53  10.55  13.88  14.09  14.12  15.10
         15.11  15.17  15.61  15.88  15.91  16.00  16.59  16.60  17.77  18.42
         18.48  18.50  19.06  19.10  19.43  19.92  20.61  20.61  21.29  21.99
         27.03  27.27  27.29  29.02  29.14  32.61  32.62  34.69  40.02  41.82
         41.82  48.10  55.86  55.89  58.65  59.66  64.80  76.42  76.48  80.95
         82.05  82.10  90.43  94.32
  97  1 -15.96 -15.41 -15.40 -15.05 -12.48 -12.08 -12.08 -11.43  -8.70  -8.28
         -8.28  -7.55  -7.28  -7.26  -7.24  -6.68  -3.52  -3.47  -3.10  -3.09
         -2.40  -2.39  -2.02  -2.00  -1.54  -1.17  -1.04  -1.04   1.23   1.23
          2.03   2.21   2.41   3.05   3.43   3.88   3.89   4.25   4.25   4.48
          5.12   6.93   6.94   7.15   7.15   7.67   8.00   8.61   8.82   8.83
          8.95   9.27   9.32  10.11  10.55  10.55  13.88  14.12  14.12  15.10
         15.10  15.16  15.62  15.87  15.90  15.98  16.59  16.59  17.76  18.42
         18.48  18.49  19.10  19.10  19.44  19.91  20.59  20.60  21.30  21.97
         27.06  27.27  27.28  29.01  29.14  32.55  32.56  34.72  40.03  41.78
         41.84  48.20  55.65  55.74  58.80  59.68  64.86  76.42  76.44  80.85
         82.02  82.04  90.47  94.54
  98  1 -16.15 -15.51 -15.51 -14.98 -12.01 -11.38 -11.38 -10.57  -9.74  -9.23
         -9.23  -8.62  -7.41  -7.35  -7.34  -6.61  -3.63  -2.90  -2.69  -2.68
         -2.02  -2.02  -1.61  -1.43  -0.32  -0.31  -0.27  -0.12   0.23   0.23
          0.54   0.98   1.56   1.93   2.32   2.57   2.57   4.10   4.11   5.16
          5.76   7.70   7.71   7.98   8.55   8.56   9.39   9.56   9.78   9.90
          9.90  10.61  11.11  11.67  11.68  12.08  12.70  12.90  12.98  12.99
         13.57  13.76  13.77  14.52  15.03  15.26  15.27  15.50  17.60  18.45
         18.46  19.25  20.06  20.06  20.50  20.53  21.76  21.77  21.98  22.50
         25.48  26.07  26.24  26.24  28.01  36.10  36.11  41.29  44.82  44.85
         51.42  51.49  54.47  54.49  59.96  61.67  63.47  69.87  69.87  81.50
         81.55  82.50  85.13  88.08
  99  1 -16.15 -15.51 -15.51 -14.98 -12.02 -11.39 -11.38 -10.58  -9.74  -9.23
         -9.23  -8.61  -7.41  -7.35  -7.35  -6.61  -3.63  -2.90  -2.69  -2.68
         -2.02  -2.01  -1.61  -1.42  -0.33  -0.33  -0.28  -0.13   0.23   0.23
          0.53   0.98   1.57   1.93   2.32   2.58   2.59   4.10   4.10   5.17
          5.76   7.70   7.71   7.97   8.55   8.56   9.39   9.56   9.77   9.91
          9.92  10.60  11.12  11.66  11.67  12.06  12.72  12.89  12.94  12.95
         13.55  13.77  13.78  14.52  15.04  15.28  15.30  15.51  17.60  18.45
         18.46  19.26  20.06  20.06  20.52  20.54  21.77  21.78  21.99  22.49
         25.47  26.08  26.24  26.25  28.00  36.12  36.13  41.29  44.93  44.95
         51.44  51.52  54.46  54.49  59.96  61.62  63.51  69.97  70.08  81.53
         81.56  82.51  85.09  88.08
 100  1 -15.97 -15.41 -15.40 -15.04 -12.48 -12.08 -12.08 -11.43  -8.71  -8.27
         -8.27  -7.55  -7.29  -7.25  -7.25  -6.68  -3.51  -3.48  -3.09  -3.08
         -2.40  -2.40  -2.02  -1.99  -1.55  -1.18  -1.04  -1.04   1.21   1.21
          2.03   2.21   2.40   3.07   3.44   3.88   3.89   4.26   4.26   4.50
          5.14   6.94   6.96   7.15   7.15   7.67   7.99   8.62   8.82   8.84
          8.98   9.24   9.30  10.09  10.52  10.52  13.87  14.11  14.11  15.11
         15.11  15.17  15.60  15.86  15.91  16.00  16.60  16.63  17.78  18.42
         18.48  18.49  19.10  19.10  19.45  19.93  20.60  20.62  21.30  21.95
         27.05  27.28  27.29  29.02  29.15  32.61  32.63  34.74  40.01  41.82
         41.84  48.16  55.80  55.87  58.76  59.70  64.98  76.54  76.57  80.88
         82.02  82.08  90.39  94.64
 101  1 -15.65 -15.28 -15.27 -15.27 -12.59 -12.59 -12.58 -12.18  -7.50  -7.48
         -7.48  -7.08  -7.07  -7.07  -6.84  -6.84  -4.14  -3.68  -3.67  -3.67
         -2.32  -2.32  -2.31  -2.17  -2.17  -1.87  -1.87  -1.86   2.70   2.70
          2.70   3.12   4.00   4.00   4.04   4.04   4.06   5.04   5.34   5.34
          5.34   6.14   6.14   6.15   6.26   6.27   6.27   7.69   7.69   7.89
          7.91   7.91   8.71   8.71   8.72   8.76  15.99  16.01  16.01  16.06
         16.55  16.55  16.78  16.78  16.78  17.44  17.44  17.47  18.22  18.23
         18.23  19.06  19.06  19.07  19.47  19.47  19.51  20.11  20.11  21.96
         28.55  28.55  28.56  30.02  30.02  30.10  30.13  30.13  52.20  52.24
         52.24  56.71  61.92  61.94  61.94  71.76  71.78  71.78  74.45  74.45
         87.18  87.30  87.30 103.05
 102  1 -15.64 -15.28 -15.27 -15.27 -12.59 -12.59 -12.58 -12.18  -7.49  -7.49
         -7.48  -7.08  -7.07  -7.07  -6.84  -6.84  -4.15  -3.68  -3.68  -3.66
         -2.31  -2.30  -2.30  -2.18  -2.16  -1.88  -1.88  -1.87   2.71   2.71
          2.73   3.11   3.99   4.01   4.04   4.05   4.05   5.03   5.32   5.33
          5.34   6.12   6.12   6.13   6.25   6.26   6.26   7.67   7.70   7.90
          7.91   7.93   8.71   8.73   8.74   8.79  15.97  16.01  16.01  16.07
         16.53  16.55  16.79  16.79  16.80  17.43  17.43  17.44  18.17  18.21
         18.22  19.05  19.06  19.06  19.49  19.50  19.50  20.10  20.10  22.03
         28.50  28.51  28.54  29.95  30.03  30.14  30.15  30.16  52.22  52.25
         52.29  56.68  61.76  61.84  62.05  71.76  71.79  71.87  74.09  74.33
         87.10  87.13  87.17 102.89
 103  1 -15.96 -15.41 -15.40 -15.04 -12.48 -12.08 -12.07 -11.43  -8.71  -8.28
         -8.27  -7.55  -7.29  -7.25  -7.25  -6.68  -3.52  -3.48  -3.09  -3.08
         -2.40  -2.39  -2.03  -1.99  -1.55  -1.18  -1.04  -1.03   1.22   1.23
          2.02   2.20   2.42   3.05   3.43   3.88   3.88   4.25   4.26   4.49
          5.14   6.94   6.94   7.12   7.14   7.66   8.01   8.61   8.81   8.83
          8.98   9.26   9.33  10.10  10.53  10.55  13.88  14.09  14.12  15.10
         15.11  15.17  15.61  15.88  15.91  16.00  16.59  16.60  17.77  18.42
         18.48  18.50  19.06  19.10  19.43  19.92  20.61  20.61  21.29  21.99
         27.03  27.27  27.29  29.02  29.14  32.61  32.62  34.69  40.02  41.82
         41.82  48.10  55.86  55.89  58.65  59.66  64.80  76.42  76.48  80.95
         82.05  82.10  90.43  94.32
 104  1 -16.14 -15.52 -15.51 -14.97 -12.02 -11.39 -11.37 -10.58  -9.74  -9.23
         -9.23  -8.61  -7.42  -7.35  -7.35  -6.61  -3.63  -2.90  -2.68  -2.67
         -2.02  -2.01  -1.62  -1.43  -0.32  -0.31  -0.28  -0.13   0.23   0.24
          0.53   0.97   1.56   1.92   2.34   2.58   2.59   4.08   4.09   5.18
          5.78   7.68   7.69   7.98   8.55   8.56   9.41   9.57   9.79   9.89
          9.91  10.61  11.12  11.65  11.67  12.08  12.71  12.89  12.97  12.97
         13.56  13.76  13.77  14.53  15.02  15.27  15.28  15.52  17.63  18.44
         18.46  19.24  20.04  20.06  20.48  20.57  21.78  21.78  21.97  22.51
         25.46  26.07  26.24  26.25  28.00  36.11  36.11  41.29  44.89  44.93
         51.26  51.53  54.58  54.62  59.85  61.70  63.34  69.90  69.94  81.51
         81.58  82.56  85.13  88.12
 105  1 -16.14 -15.52 -15.51 -14.97 -12.02 -11.39 -11.37 -10.58  -9.74  -9.23
         -9.23  -8.61  -7.42  -7.35  -7.35  -6.61  -3.63  -2.90  -2.68  -2.67
         -2.02  -2.01  -1.62  -1.43  -0.32  -0.31  -0.28  -0.13   0.23   0.24
          0.53   0.97   1.56   1.92   2.34   2.58   2.59   4.08   4.09   5.18
          5.78   7.68   7.69   7.98   8.55   8.56   9.41   9.57   9.79   9.89
          9.91  10.61  11.12  11.65  11.67  12.08  12.71  12.89  12.97  12.97
         13.56  13.76  13.77  14.53  15.02  15.27  15.28  15.52  17.63  18.44
         18.46  19.24  20.04  20.06  20.48  20.57  21.78  21.78  21.97  22.51
         25.46  26.07  26.24  26.25  28.00  36.11  36.11  41.29  44.89  44.93
         51.26  51.53  54.58  54.62  59.85  61.70  63.34  69.90  69.94  81.51
         81.58  82.56  85.13  88.12
 106  1 -15.96 -15.41 -15.40 -15.04 -12.48 -12.08 -12.07 -11.43  -8.71  -8.28
         -8.27  -7.55  -7.29  -7.25  -7.25  -6.68  -3.52  -3.48  -3.09  -3.08
         -2.40  -2.39  -2.03  -1.99  -1.55  -1.18  -1.04  -1.03   1.22   1.23
          2.02   2.20   2.42   3.05   3.43   3.88   3.88   4.25   4.26   4.49
          5.14   6.94   6.94   7.12   7.14   7.66   8.01   8.61   8.81   8.83
          8.98   9.26   9.33  10.10  10.53  10.55  13.88  14.09  14.12  15.10
         15.11  15.17  15.61  15.88  15.91  16.00  16.59  16.60  17.77  18.42
         18.48  18.50  19.06  19.10  19.43  19.92  20.61  20.61  21.29  21.99
         27.03  27.27  27.29  29.02  29.14  32.61  32.62  34.69  40.02  41.82
         41.82  48.10  55.86  55.89  58.65  59.66  64.80  76.42  76.48  80.95
         82.05  82.10  90.43  94.32
 107  1 -15.64 -15.28 -15.27 -15.27 -12.59 -12.59 -12.58 -12.18  -7.49  -7.49
         -7.48  -7.08  -7.07  -7.07  -6.84  -6.84  -4.15  -3.68  -3.68  -3.66
         -2.31  -2.30  -2.30  -2.18  -2.16  -1.88  -1.88  -1.87   2.71   2.71
          2.73   3.11   3.99   4.01   4.04   4.05   4.05   5.03   5.32   5.33
          5.34   6.12   6.12   6.13   6.25   6.26   6.26   7.67   7.70   7.90
          7.91   7.93   8.71   8.73   8.74   8.79  15.97  16.01  16.01  16.07
         16.53  16.55  16.79  16.79  16.80  17.43  17.43  17.44  18.17  18.21
         18.22  19.05  19.06  19.06  19.49  19.50  19.50  20.10  20.10  22.03
         28.50  28.51  28.54  29.95  30.03  30.14  30.15  30.16  52.22  52.25
         52.29  56.68  61.76  61.84  62.05  71.76  71.79  71.87  74.09  74.33
         87.10  87.13  87.17 102.89
 108  1 -15.64 -15.28 -15.27 -15.27 -12.59 -12.59 -12.58 -12.18  -7.49  -7.49
         -7.48  -7.08  -7.07  -7.07  -6.84  -6.84  -4.15  -3.68  -3.68  -3.66
         -2.31  -2.30  -2.30  -2.18  -2.16  -1.88  -1.88  -1.87   2.71   2.71
          2.73   3.11   3.99   4.01   4.04   4.05   4.05   5.03   5.32   5.33
          5.34   6.12   6.12   6.13   6.25   6.26   6.26   7.67   7.70   7.90
          7.91   7.93   8.71   8.73   8.74   8.79  15.97  16.01  16.01  16.07
         16.53  16.55  16.79  16.79  16.80  17.43  17.43  17.44  18.17  18.21
         18.22  19.05  19.06  19.06  19.49  19.50  19.50  20.10  20.10  22.03
         28.50  28.51  28.54  29.95  30.03  30.14  30.15  30.16  52.22  52.25
         52.29  56.68  61.76  61.84  62.05  71.76  71.79  71.87  74.09  74.33
         87.10  87.13  87.17 102.89
siesta: Fermi energy =      -5.340451 eV

siesta: Program's energy decomposition (eV):
siesta: Ebs     =      -344.348417
siesta: Eions   =      1510.441798
siesta: Ena     =       465.210151
siesta: Ekin    =       325.279518
siesta: Enl     =       111.026312
siesta: DEna    =         5.075408
siesta: DUscf   =         1.530025
siesta: DUext   =         0.000000
siesta: Exc     =      -259.650472
siesta: eta*DQ  =         0.000000
siesta: Emadel  =         0.000000
siesta: Emeta   =         0.000000
siesta: Emolmec =         0.000000
siesta: Ekinion =         0.000000
siesta: Eharris =      -861.970896
siesta: Etot    =      -861.970857
siesta: FreeEng =      -861.970857

siesta: Final energy (eV):
siesta:  Band Struct. =    -344.348417
siesta:       Kinetic =     325.279518
siesta:       Hartree =      57.790424
siesta:    Ext. field =       0.000000
siesta:   Exch.-corr. =    -259.650472
siesta:  Ion-electron =    -446.657640
siesta:       Ion-ion =    -538.732686
siesta:       Ekinion =       0.000000
siesta:         Total =    -861.970857

siesta: Stress tensor (static) (eV/Ang**3):
siesta:    -0.000521    0.000534    0.000533
siesta:     0.000534   -0.000521    0.000533
siesta:     0.000533    0.000533   -0.000521

siesta: Constrained stress tensor (static) (eV/Ang**3):
siesta:    -0.000521    0.000534    0.000533
siesta:     0.000534   -0.000521    0.000533
siesta:     0.000533    0.000533   -0.000521

siesta: Cell volume =        160.937574 Ang**3

siesta: Pressure (static):
siesta:                Solid            Molecule  Units
siesta:           0.00000567          0.00000960  Ry/Bohr**3
siesta:           0.00052062          0.00088105  eV/Ang**3
siesta:           0.83413784          1.41161548  kBar
(Free)E+ p_basis*V_orbitals  =        -852.997253
(Free)Eharris+ p_basis*V_orbitals  =        -852.996699

* Maximum dynamic memory allocated : Node    0 =   101 MB

* Maximum memory occured during init_pulay_arrrays            

timer: CPU execution times:
timer:  Routine       Calls   Time/call    Tot.time        %
timer:  siesta            1    2007.605    2007.605   100.00
timer:  Setup             1       0.116       0.116     0.01
timer:  bands             3       0.555       1.664     0.08
timer:  writewave         3       0.007       0.020     0.00
timer:  KSV_init          1       0.000       0.000     0.00
timer:  IterMD           18     111.427    2005.689    99.90
timer:  hsparse          18       0.226       4.076     0.20
timer:  overlap          18       0.126       2.276     0.11
timer:  IterSCF          89      18.648    1659.716    82.67
timer:  kinefsm          36       0.130       4.665     0.23
timer:  nlefsm           36       5.116     184.187     9.17
timer:  DHSCF           107      10.160    1087.080    54.15
timer:  DHSCF1           18       0.048       0.872     0.04
timer:  DHSCF2           18       2.156      38.803     1.93
timer:  REORD           678       0.000       0.072     0.00
timer:  POISON          125       0.004       0.544     0.03
timer:  DHSCF3          107       9.038     967.116    48.17
timer:  rhoofd          107       4.148     443.831    22.11
timer:  cellXC          107       0.011       1.191     0.06
timer:  vmat            107       4.873     521.457    25.97
timer:  MolMec           36       0.000       0.000     0.00
timer:  diagon           89       8.048     716.285    35.68
timer:  c-eigval      11249       0.019     215.682    10.74
timer:  c-buildHS     11249       0.015     163.752     8.16
timer:  cdiag         22398       0.007     159.349     7.94
timer:  cdiag1        22398       0.001      12.034     0.60
timer:  cdiag2        22398       0.002      41.122     2.05
timer:  cdiag3        22398       0.005     102.704     5.12
timer:  cdiag4        22398       0.000       2.917     0.15
timer:  c-eigvec      11149       0.024     272.603    13.58
timer:  c-buildD      11148       0.021     228.540    11.38
timer:  DHSCF4           18       4.459      80.257     4.00
timer:  dfscf            18       4.302      77.429     3.86
timer:  overfsm          18       0.124       2.228     0.11
timer:  optical           1       0.000       0.000     0.00
  

elaps: ELAPSED times:
elaps:  Routine       Calls   Time/call    Tot.time        %
elaps:  siesta            1    2015.550    2015.550   100.00
elaps:  Setup             1       0.119       0.119     0.01
elaps:  bands             3       0.557       1.670     0.08
elaps:  writewave         3       0.007       0.020     0.00
elaps:  KSV_init          1       0.000       0.000     0.00
elaps:  IterMD           18     111.868    2013.626    99.90
elaps:  hsparse          18       0.227       4.092     0.20
elaps:  overlap          18       0.127       2.287     0.11
elaps:  IterSCF          89      18.723    1666.387    82.68
elaps:  kinefsm          36       0.130       4.675     0.23
elaps:  nlefsm           36       5.134     184.823     9.17
elaps:  DHSCF           107      10.198    1091.185    54.14
elaps:  DHSCF1           18       0.048       0.868     0.04
elaps:  DHSCF2           18       2.164      38.952     1.93
elaps:  REORD           678       0.000       0.065     0.00
elaps:  POISON          125       0.004       0.559     0.03
elaps:  DHSCF3          107       9.073     970.778    48.16
elaps:  rhoofd          107       4.162     445.386    22.10
elaps:  cellXC          107       0.011       1.207     0.06
elaps:  vmat            107       4.893     523.562    25.98
elaps:  MolMec           36       0.000       0.000     0.00
elaps:  diagon           89       8.083     719.407    35.69
elaps:  c-eigval      11249       0.019     216.678    10.75
elaps:  c-buildHS     11249       0.015     164.688     8.17
elaps:  cdiag         22398       0.007     159.640     7.92
elaps:  cdiag1        22398       0.001      11.786     0.58
elaps:  cdiag2        22398       0.002      41.677     2.07
elaps:  cdiag3        22398       0.005     102.752     5.10
elaps:  cdiag4        22398       0.000       2.886     0.14
elaps:  c-eigvec      11149       0.025     273.633    13.58
elaps:  c-buildD      11148       0.021     229.789    11.40
elaps:  DHSCF4           18       4.475      80.555     4.00
elaps:  dfscf            18       4.318      77.730     3.86
elaps:  overfsm          18       0.124       2.229     0.11
elaps:  optical           1       0.000       0.000     0.00
  
>> End of run:  10-MAY-2013   1:01:24

=====================================================================================
=   BAD TERMINATION OF ONE OF YOUR APPLICATION PROCESSES
=   EXIT CODE: 134
=   CLEANING UP REMAINING PROCESSES
=   YOU CAN IGNORE THE BELOW CLEANUP MESSAGES
=====================================================================================
APPLICATION TERMINATED WITH THE EXIT STRING: Aborted (signal 6)
