Siesta Version:                                        siesta-3.2
Architecture  : x86_64-unknown-linux-gnu--unknown
Compiler flags: f95 -g -O2
SERIAL version

* Running in serial mode
Siesta Version:                                        siesta-3.2
Architecture  : x86_64-unknown-linux-gnu--unknown
Compiler flags: f95 -g -O2
SERIAL version

* Running in serial mode
>> Start of run:   9-MAY-2013  18:21:23
>> Start of run:   9-MAY-2013  18:21:23

                           ***********************       
                           *  WELCOME TO SIESTA  *       
                           ***********************       

reinit: Reading from standard input
************************** Dump of input data file ****************************
# FDF for silicon
SystemName             silicon          # Descriptive name of the system
SystemLabel            si          # Short name for naming files
NumberOfAtoms 8
NumberOfSpecies 1
%block ChemicalSpeciesLabel
1 14 Si
%endblock ChemicalSpeciesLabel
LatticeConstant  5.10 Ang
##Basis set Definition##
PAO.BasisType          split        # Type of PAO basis set
PAO.EnergyShift        50 meV
PAO.BasisSize          DZP          # (DZP) Double-z + polarization
#%block LatticeVectors
#0.500 0.500 0.000
#0.500 0.000 0.500
#0.000 0.500 0.500
#%endblock LatticeVectors
AtomicCoordinatesFormat NotScaledCartesianAng
%block AtomicCoordinatesAndAtomicSpecies
	0.00000000	0.00000000	0.00000000  1 Si  1
	1.36000000	1.36000000	1.36000000  1 Si  2
	2.72000000	2.72000000	0.00000000  1 Si  3
	4.08000000	4.08000000	1.36000000  1 Si  4
	2.72000000	0.00000000	2.72000000  1 Si  5
	4.08000000	1.36000000	4.08000000  1 Si  6
	0.00000000	2.72000000	2.72000000  1 Si  7
	1.36000000	4.08000000	4.08000000  1 Si  8
%endblock AtomicCoordinatesAndAtomicSpecies
MeshCutoff 100.0 Ry # 100, 120, 180, 260
kgrid_cutoff 30.0 Bohr # 30, 35, 40, 45
DM.Mixingweight  0.3
DM.NumberPulay    3
DM.Tolerance      1.d-3
DM.UseSaveDM      true
ElectronicTemperature 25 meV
SolutionMethod    diagon
XC.functional      GGA	    # Generalized Gradient Approximation
XC.authors        PBE          # Perdew-Burke-Ernzerhof
SpinPolarized     false
MD.TypeOfRun           CG           # Type of dynamics:
MD.VariableCell        true
MD.NumCGsteps          100          # Number of CG steps for coordinate optimization
MD.MaxCGDispl          0.2 Bohr     # Maximum atomic displacement
                                    #   in one CG step (Bohr)
MD.MaxForceTol         0.04 eV/Ang  # Tolerance in the maximum
                                    #   atomic force (Ry/Bohr)
				
##Output Specification##
WriteMDhistory         true         # Trajectory information
WriteCoorStep          true
WriteCoorXmol          true
WriteMDXmol            true
WriteEigenvalues true
WriteKbands      true
WriteBands       true
WriteWaveFunctions true
WriteMullikenPoP   1
%block BandLines
1	1.000	1.000 1.000 L
25	0.000	0.000	0.000 \Gamma
30	2.000	0.000	0.000 X
10	2.000	0.500	0.500 U
35	0.000	0.000	0.000 \Gamma
%endblock BandLines
%block WaveFuncKPoints
0.0 0.0 0.0 from 1 to 50 # > 16 = 4/2*8 (Valenzelektronen/2, Atomzahl ...)
%endblock WaveFuncKpoints
************************** End of input data file *****************************

reinit: -----------------------------------------------------------------------
reinit: System Name: silicon
reinit: -----------------------------------------------------------------------
reinit: System Label: si                                                          
reinit: -----------------------------------------------------------------------

                           ***********************       
                           *  WELCOME TO SIESTA  *       
                           ***********************       

reinit: Reading from standard input
************************** Dump of input data file ****************************
************************** End of input data file *****************************

reinit: -----------------------------------------------------------------------
reinit: System Name: 
reinit: -----------------------------------------------------------------------
reinit: System Label: siesta                                                      
reinit: -----------------------------------------------------------------------

initatom: Reading input for the pseudopotentials and atomic orbitals ----------

initatom: Reading input for the pseudopotentials and atomic orbitals ----------
 Species number:            1  Label: Si Atomic number:          14
Ground state valence configuration:   3s02  3p02
Reading pseudopotential information in formatted form from Si.psf

Valence configuration for pseudopotential generation:
3s( 2.00) rc: 1.75
3p( 2.00) rc: 1.94
3d( 0.00) rc: 2.09
4f( 0.00) rc: 2.09
 Species number:            1  Label: Si Atomic number:          14
Ground state valence configuration:   3s02  3p02
Reading pseudopotential information in formatted form from Si.psf

Valence configuration for pseudopotential generation:
3s( 2.00) rc: 1.75
3p( 2.00) rc: 1.94
3d( 0.00) rc: 2.09
4f( 0.00) rc: 2.09
For Si, standard SIESTA heuristics set lmxkb to 3
 (one more than the basis l, including polarization orbitals).
Use PS.lmax or PS.KBprojectors blocks to override.

<basis_specs>
===============================================================================
Si                   Z=  14    Mass=  28.090        Charge= 0.17977+309
Lmxo=1 Lmxkb= 3    BasisType=split      Semic=F
L=0  Nsemic=0  Cnfigmx=3
          n=1  nzeta=2  polorb=0
            splnorm:   0.15000    
               vcte:    0.0000    
               rinn:    0.0000    
                rcs:    0.0000      0.0000    
            lambdas:    1.0000      1.0000    
L=1  Nsemic=0  Cnfigmx=3
          n=1  nzeta=2  polorb=1
            splnorm:   0.15000    
               vcte:    0.0000    
               rinn:    0.0000    
For Si, standard SIESTA heuristics set lmxkb to 3
                rcs:    0.0000      0.0000    
            lambdas:    1.0000      1.0000    
 (one more than the basis l, including polarization orbitals).
Use PS.lmax or PS.KBprojectors blocks to override.
-------------------------------------------------------------------------------
L=0  Nkbl=1  erefs: 0.17977+309
L=1  Nkbl=1  erefs: 0.17977+309
L=2  Nkbl=1  erefs: 0.17977+309
L=3  Nkbl=1  erefs: 0.17977+309
===============================================================================
</basis_specs>

atom: Called for Si                    (Z =  14)

read_vps: Pseudopotential generation method:
read_vps: ATM3      Troullier-Martins                       
Total valence charge:    4.00000

read_vps: Pseudopotential includes a core correction:
read_vps: Pseudo-core for xc-correction

xc_check: Exchange-correlation functional:
xc_check: GGA Perdew, Burke & Ernzerhof 1996

<basis_specs>
===============================================================================
Si                   Z=  14    Mass=  28.090        Charge= 0.17977+309
Lmxo=1 Lmxkb= 3    BasisType=split      Semic=F
L=0  Nsemic=0  Cnfigmx=3
          n=1  nzeta=2  polorb=0
            splnorm:   0.15000    
               vcte:    0.0000    
               rinn:    0.0000    
                rcs:    0.0000      0.0000    
            lambdas:    1.0000      1.0000    
L=1  Nsemic=0  Cnfigmx=3
          n=1  nzeta=2  polorb=1
            splnorm:   0.15000    
               vcte:    0.0000    
               rinn:    0.0000    
                rcs:    0.0000      0.0000    
            lambdas:    1.0000      1.0000    
-------------------------------------------------------------------------------
L=0  Nkbl=1  erefs: 0.17977+309
L=1  Nkbl=1  erefs: 0.17977+309
L=2  Nkbl=1  erefs: 0.17977+309
L=3  Nkbl=1  erefs: 0.17977+309
===============================================================================
</basis_specs>

atom: Called for Si                    (Z =  14)

read_vps: Pseudopotential generation method:
read_vps: ATM3      Troullier-Martins                       
Total valence charge:    4.00000

read_vps: Pseudopotential includes a core correction:
read_vps: Pseudo-core for xc-correction

xc_check: Exchange-correlation functional:
xc_check: GGA Perdew, Burke & Ernzerhof 1996
V l=0 = -2*Zval/r beyond r=  2.0104
V l=1 = -2*Zval/r beyond r=  2.0873
V l=2 = -2*Zval/r beyond r=  2.1670
V l=3 = -2*Zval/r beyond r=  2.1670
All V_l potentials equal beyond r=  2.0613
This should be close to max(r_c) in ps generation
All pots = -2*Zval/r beyond r=  2.1670

VLOCAL1: 99.0% of the norm of Vloc inside     10.216 Ry
VLOCAL1: 99.9% of the norm of Vloc inside     23.282 Ry
atom: Maximum radius for 4*pi*r*r*local-pseudopot. charge    2.45560
V l=0 = -2*Zval/r beyond r=  2.0104
V l=1 = -2*Zval/r beyond r=  2.0873
V l=2 = -2*Zval/r beyond r=  2.1670
V l=3 = -2*Zval/r beyond r=  2.1670
All V_l potentials equal beyond r=  2.0613
This should be close to max(r_c) in ps generation
All pots = -2*Zval/r beyond r=  2.1670

VLOCAL1: 99.0% of the norm of Vloc inside     10.216 Ry
VLOCAL1: 99.9% of the norm of Vloc inside     23.282 Ry
atom: Maximum radius for 4*pi*r*r*local-pseudopot. charge    2.45560
atom: Maximum radius for r*vlocal+2*Zval:    2.14012
atom: Maximum radius for r*vlocal+2*Zval:    2.14012
GHOST: No ghost state for L =  0
GHOST: No ghost state for L =  0
GHOST: No ghost state for L =  1
GHOST: No ghost state for L =  1
GHOST: No ghost state for L =  2
GHOST: No ghost state for L =  2
GHOST: No ghost state for L =  3
GHOST: No ghost state for L =  3

KBgen: Kleinman-Bylander projectors: 
   l= 0   rc=  2.306811   el= -0.791441   Ekb=  5.289775   kbcos=  0.291595
   l= 1   rc=  2.394965   el= -0.300632   Ekb=  1.944256   kbcos=  0.287657
   l= 2   rc=  2.549439   el=  0.001958   Ekb= -1.788485   kbcos= -0.056492
   l= 3   rc=  2.782581   el=  0.003046   Ekb= -0.472620   kbcos= -0.006203

KBgen: Total number of  Kleinman-Bylander projectors:   16
atom: -------------------------------------------------------------------------

atom: SANKEY-TYPE ORBITALS:
atom: Selected multiple-zeta basis: split     

KBgen: Kleinman-Bylander projectors: 
   l= 0   rc=  2.306811   el= -0.791441   Ekb=  5.289775   kbcos=  0.291595
   l= 1   rc=  2.394965   el= -0.300632   Ekb=  1.944256   kbcos=  0.287657
   l= 2   rc=  2.549439   el=  0.001958   Ekb= -1.788485   kbcos= -0.056492
   l= 3   rc=  2.782581   el=  0.003046   Ekb= -0.472620   kbcos= -0.006203

KBgen: Total number of  Kleinman-Bylander projectors:   16
atom: -------------------------------------------------------------------------

atom: SANKEY-TYPE ORBITALS:
atom: Selected multiple-zeta basis: split     

SPLIT: Orbitals with angular momentum L= 0

SPLIT: Basis orbitals for state 3s

SPLIT: Orbitals with angular momentum L= 0

SPLIT: Basis orbitals for state 3s

SPLIT: PAO cut-off radius determined from an
SPLIT: energy shift=  0.003675 Ry

SPLIT: PAO cut-off radius determined from an
SPLIT: energy shift=  0.003675 Ry

   izeta = 1
                 lambda =    1.000000
                     rc =    6.116033
                 energy =   -0.788343
                kinetic =    0.528041
    potential(screened) =   -1.316383
       potential(ionic) =   -3.704743

   izeta = 1
                 lambda =    1.000000
                     rc =    6.116033
                 energy =   -0.788343
                kinetic =    0.528041
    potential(screened) =   -1.316383
       potential(ionic) =   -3.704743

   izeta = 2
                 rmatch =    4.530823
              splitnorm =    0.150000
                 energy =   -0.692892
                kinetic =    0.848665
    potential(screened) =   -1.541557
       potential(ionic) =   -4.044985

   izeta = 2
                 rmatch =    4.530823
              splitnorm =    0.150000
                 energy =   -0.692892
                kinetic =    0.848665
    potential(screened) =   -1.541557
       potential(ionic) =   -4.044985

SPLIT: Orbitals with angular momentum L= 1

SPLIT: Basis orbitals for state 3p

SPLIT: PAO cut-off radius determined from an
SPLIT: energy shift=  0.003675 Ry

SPLIT: Orbitals with angular momentum L= 1

SPLIT: Basis orbitals for state 3p

SPLIT: PAO cut-off radius determined from an
SPLIT: energy shift=  0.003675 Ry

   izeta = 1
                 lambda =    1.000000
                     rc =    7.853192
                 energy =   -0.297152
                kinetic =    0.797948
    potential(screened) =   -1.095101
       potential(ionic) =   -3.275753

   izeta = 1
                 lambda =    1.000000
                     rc =    7.853192
                 energy =   -0.297152
                kinetic =    0.797948
    potential(screened) =   -1.095101
       potential(ionic) =   -3.275753

   izeta = 2
                 rmatch =    5.330310
              splitnorm =    0.150000
                 energy =   -0.228170
                kinetic =    1.148579
    potential(screened) =   -1.376749
       potential(ionic) =   -3.739005

   izeta = 2
                 rmatch =    5.330310
              splitnorm =    0.150000
                 energy =   -0.228170
                kinetic =    1.148579
    potential(screened) =   -1.376749
       potential(ionic) =   -3.739005

POLgen: Perturbative polarization orbital with L=  2

POLgen: Polarization orbital for state 3p

POLgen: Perturbative polarization orbital with L=  2

POLgen: Polarization orbital for state 3p

   izeta = 1
                     rc =    7.853192
                 energy =    0.340222
                kinetic =    1.096718
    potential(screened) =   -0.756496
       potential(ionic) =   -2.716423
atom: Total number of Sankey-type orbitals: 13

atm_pop: Valence configuration (for local Pseudopot. screening):
 3s( 2.00)                                                            
 3p( 2.00)                                                            
Vna: chval, zval:    4.00000   4.00000

Vna:  Cut-off radius for the neutral-atom potential:   7.853192

   izeta = 1
                     rc =    7.853192
                 energy =    0.340222
                kinetic =    1.096718
    potential(screened) =   -0.756496
       potential(ionic) =   -2.716423
comcore: Pseudo-core radius Rcore=  2.999314
atom: Total number of Sankey-type orbitals: 13

atm_pop: Valence configuration (for local Pseudopot. screening):
 3s( 2.00)                                                            

 3p( 2.00)                                                            
atom: _________________________________________________________________________

prinput: Basis input ----------------------------------------------------------

PAO.BasisType split     

%block ChemicalSpeciesLabel
Vna: chval, zval:    4.00000   4.00000
    1   14 Si                      # Species index, atomic number, species label
%endblock ChemicalSpeciesLabel

%block PAO.Basis                 # Define Basis set
Si                    2                    # Species label, number of l-shells
 n=3   0   2                         # n, l, Nzeta 
   6.116      4.531   
   1.000      1.000   

 n=3   1   2 P   1                   # n, l, Nzeta, Polarization, NzetaPol
Vna:  Cut-off radius for the neutral-atom potential:   7.853192
   7.853      5.330   
   1.000      1.000   
%endblock PAO.Basis

prinput: ----------------------------------------------------------------------

comcore: Pseudo-core radius Rcore=  2.999314

atom: _________________________________________________________________________

prinput: Basis input ----------------------------------------------------------

PAO.BasisType split     

%block ChemicalSpeciesLabel
    1   14 Si                      # Species index, atomic number, species label
%endblock ChemicalSpeciesLabel

%block PAO.Basis                 # Define Basis set
Si                    2                    # Species label, number of l-shells
 n=3   0   2                         # n, l, Nzeta 
   6.116      4.531   
   1.000      1.000   
 n=3   1   2 P   1                   # n, l, Nzeta, Polarization, NzetaPol
   7.853      5.330   
   1.000      1.000   
%endblock PAO.Basis

prinput: ----------------------------------------------------------------------

coor:   Atomic-coordinates input format  =     Cartesian coordinates
coor:                                          (in Angstroms)

siesta: Atomic coordinates (Bohr) and species
siesta:      0.00000   0.00000   0.00000  1        1
siesta:      2.57003   2.57003   2.57003  1        2
siesta:      5.14006   5.14006   0.00000  1        3
siesta:      7.71009   7.71009   2.57003  1        4
siesta:      5.14006   0.00000   5.14006  1        5
siesta:      7.71009   2.57003   7.71009  1        6
siesta:      0.00000   5.14006   5.14006  1        7
siesta:      2.57003   7.71009   7.71009  1        8

siesta: System type = bulk      

initatomlists: Number of atoms, orbitals, and projectors:      8   104   128

siesta: ******************** Simulation parameters ****************************
siesta:
siesta: The following are some of the parameters of the simulation.
siesta: A complete list of the parameters used, including default values,
siesta: can be found in file out.fdf
siesta:
redata: Non-Collinear-spin run           =     F
redata: SpinPolarized (Up/Down) run      =     F
redata: Number of spin components        =     1
redata: Long output                      =     F
redata: Number of Atomic Species         =        1
redata: Charge density info will appear in .RHO file
redata: Write Mulliken Pop.              =     Atomic and Orbital charges
redata: Mesh Cutoff                      =   100.0000  Ry
redata: Net charge of the system         =     0.0000 |e|
redata: Max. number of SCF Iter          =       50
redata: Performing Pulay mixing using    =     3 iterations
coor:   Atomic-coordinates input format  =     Cartesian coordinates
coor:                                          (in Angstroms)
redata: Mix DM in first SCF step ?       =     F
redata: Write Pulay info on disk?        =     F
redata: Discard 1st Pulay DM after  kick =     F
redata: New DM Mixing Weight             =     0.3000
redata: New DM Occupancy tolerance       = 0.000000000001
redata: No kicks to SCF
redata: DM Mixing Weight for Kicks       =     0.5000
redata: DM Tolerance for SCF             =     0.001000
redata: Require Energy convergence for SCF =     F
redata: DM Energy tolerance for SCF      =     0.000100 eV
redata: Require Harris convergence for SCF =     F

siesta: Atomic coordinates (Bohr) and species
siesta:      0.00000   0.00000   0.00000  1        1
siesta:      2.57003   2.57003   2.57003  1        2
siesta:      5.14006   5.14006   0.00000  1        3
siesta:      7.71009   7.71009   2.57003  1        4
siesta:      5.14006   0.00000   5.14006  1        5
siesta:      7.71009   2.57003   7.71009  1        6
siesta:      0.00000   5.14006   5.14006  1        7
siesta:      2.57003   7.71009   7.71009  1        8

siesta: System type = bulk      
redata: DM Harris energy tolerance for SCF =     0.000100 eV
redata: Using Saved Data (generic)   =     F
redata: Use continuation files for DM    =     T
redata: Neglect nonoverlap interactions  =     F
redata: Method of Calculation            =     Diagonalization
redata: Divide and Conquer               =     T
redata: Electronic Temperature           =     0.0018  Ry

initatomlists: Number of atoms, orbitals, and projectors:      8   104   128
redata: Fix the spin of the system       =     F

siesta: ******************** Simulation parameters ****************************
siesta:
siesta: The following are some of the parameters of the simulation.
siesta: A complete list of the parameters used, including default values,
siesta: can be found in file out.fdf
siesta:
redata: Non-Collinear-spin run           =     F
redata: SpinPolarized (Up/Down) run      =     F
redata: Number of spin components        =     1
redata: Long output                      =     F
redata: Number of Atomic Species         =        1
redata: Charge density info will appear in .RHO file
redata: Write Mulliken Pop.              =     Atomic and Orbital charges
redata: Mesh Cutoff                      =   100.0000  Ry
redata: Net charge of the system         =     0.0000 |e|
redata: Max. number of SCF Iter          =       50
redata: Performing Pulay mixing using    =     3 iterations
redata: Dynamics option                  =     CG coord. optimization
redata: Variable cell                    =     T
redata: Use continuation files for CG    =     F
redata: Max atomic displ per move        =     0.2000  Bohr
redata: Maximum number of CG moves       =      100
redata: Force tolerance                  =     0.0016  Ry/Bohr
redata: Stress tolerance                 =     1.0000  GPa
redata: Mix DM in first SCF step ?       =     F
redata: Write Pulay info on disk?        =     F
redata: Discard 1st Pulay DM after  kick =     F
redata: New DM Mixing Weight             =     0.3000
redata: New DM Occupancy tolerance       = 0.000000000001
redata: No kicks to SCF
redata: DM Mixing Weight for Kicks       =     0.5000
redata: DM Tolerance for SCF             =     0.001000
redata: Require Energy convergence for SCF =     F
redata: DM Energy tolerance for SCF      =     0.000100 eV
redata: Require Harris convergence for SCF =     F
redata: DM Harris energy tolerance for SCF =     0.000100 eV
redata: Using Saved Data (generic)   =     F
redata: Use continuation files for DM    =     T
redata: Neglect nonoverlap interactions  =     F
redata: ***********************************************************************
redata: Method of Calculation            =     Diagonalization
redata: Divide and Conquer               =     T
redata: Electronic Temperature           =     0.0018  Ry
redata: Fix the spin of the system       =     F
redata: Dynamics option                  =     CG coord. optimization
redata: Variable cell                    =     T
redata: Use continuation files for CG    =     F
redata: Max atomic displ per move        =     0.2000  Bohr
redata: Maximum number of CG moves       =      100
redata: Force tolerance                  =     0.0016  Ry/Bohr
redata: Stress tolerance                 =     1.0000  GPa
Total number of electrons:    32.000000
Total ionic charge:    32.000000
redata: ***********************************************************************
 Kpoints in:          196 . Kpoints trimmed:          172

siesta: k-grid: Number of k-points =   172
siesta: k-grid: Cutoff (effective) =    17.850 Ang
siesta: k-grid: Supercell and displacements
siesta: k-grid:    0   7   0      0.000
siesta: k-grid:    0   0   7      0.000
siesta: k-grid:    7   0   0      0.000
Total number of electrons:    32.000000
Total ionic charge:    32.000000
 Kpoints in:          196 . Kpoints trimmed:          172

siesta: k-grid: Number of k-points =   172
siesta: k-grid: Cutoff (effective) =    17.850 Ang
siesta: k-grid: Supercell and displacements
siesta: k-grid:    0   7   0      0.000
siesta: k-grid:    0   0   7      0.000
siesta: k-grid:    7   0   0      0.000
Naive supercell factors:     5    5    5

superc: Internal auxiliary supercell:     5 x     5 x     5  =     125
superc: Number of atoms, orbitals, and projectors:   1000  13000  16000

* Maximum dynamic memory allocated =     2 MB

siesta:                 ==============================
                            Begin CG move =      0
                        ==============================

outcoor: Atomic coordinates (Ang):                          
    0.00000000    0.00000000    0.00000000   1       1  Si
    1.36000000    1.36000000    1.36000000   1       2  Si
    2.72000000    2.72000000    0.00000000   1       3  Si
    4.08000000    4.08000000    1.36000000   1       4  Si
    2.72000000    0.00000000    2.72000000   1       5  Si
    4.08000000    1.36000000    4.08000000   1       6  Si
    0.00000000    2.72000000    2.72000000   1       7  Si
    1.36000000    4.08000000    4.08000000   1       8  Si

superc: Internal auxiliary supercell:     5 x     5 x     5  =     125
superc: Number of atoms, orbitals, and projectors:   1000  13000  16000

outcell: Unit cell vectors (Ang):
        5.100000    0.000000    0.000000
        0.000000    5.100000    0.000000
        0.000000    0.000000    5.100000

outcell: Cell vector modules (Ang)   :    5.100000    5.100000    5.100000
outcell: Cell angles (23,13,12) (deg):     90.0000     90.0000     90.0000
outcell: Cell volume (Ang**3)        :    132.6510
Naive supercell factors:     5    5    5

superc: Internal auxiliary supercell:     5 x     5 x     5  =     125
superc: Number of atoms, orbitals, and projectors:   1000  13000  16000

* Maximum dynamic memory allocated =     2 MB

siesta:                 ==============================
                            Begin CG move =      0
                        ==============================

outcoor: Atomic coordinates (Ang):                          
    0.00000000    0.00000000    0.00000000   1       1  Si
    1.36000000    1.36000000    1.36000000   1       2  Si
    2.72000000    2.72000000    0.00000000   1       3  Si
    4.08000000    4.08000000    1.36000000   1       4  Si
    2.72000000    0.00000000    2.72000000   1       5  Si
    4.08000000    1.36000000    4.08000000   1       6  Si
    0.00000000    2.72000000    2.72000000   1       7  Si
    1.36000000    4.08000000    4.08000000   1       8  Si

superc: Internal auxiliary supercell:     5 x     5 x     5  =     125
superc: Number of atoms, orbitals, and projectors:   1000  13000  16000

outcell: Unit cell vectors (Ang):
        5.100000    0.000000    0.000000
        0.000000    5.100000    0.000000
        0.000000    0.000000    5.100000

outcell: Cell vector modules (Ang)   :    5.100000    5.100000    5.100000
outcell: Cell angles (23,13,12) (deg):     90.0000     90.0000     90.0000
outcell: Cell volume (Ang**3)        :    132.6510
New_DM. Step:     1
Initializing Density Matrix...

iodm: Reading Density Matrix from files
New_DM. Step:     1
Initializing Density Matrix...

iodm: Reading Density Matrix from files
 Read DM has different structure. Fixing...
 Read DM has different structure. Fixing...

InitMesh: MESH =    32 x    32 x    32 =       32768
InitMesh: Mesh cutoff (required, used) =   100.000   108.808 Ry

InitMesh: MESH =    32 x    32 x    32 =       32768
InitMesh: Mesh cutoff (required, used) =   100.000   108.808 Ry

* Maximum dynamic memory allocated =    78 MB

* Maximum dynamic memory allocated =    78 MB

stepf: Fermi-Dirac step function

stepf: Fermi-Dirac step function

siesta: Program's energy decomposition (eV):
siesta: Ebs     =      -367.646937
siesta: Eions   =      1510.441798
siesta: Ena     =       455.130393
siesta: Ekin    =       336.355454
siesta: Enl     =       146.506101
siesta: DEna    =        -2.314987
siesta: DUscf   =         1.697507
siesta: DUext   =         0.000000
siesta: Exc     =      -460.483956
siesta: eta*DQ  =         0.000000
siesta: Emadel  =         0.000000
siesta: Emeta   =         0.000000
siesta: Emolmec =         0.000000
siesta: Ekinion =         0.000000
siesta: Eharris =     -1025.674326
siesta: Etot    =     -1033.551285
siesta: FreeEng =     -1033.551285

siesta: iscf   Eharris(eV)      E_KS(eV)   FreeEng(eV)   dDmax  Ef(eV)
siesta:    1    -1025.6743    -1033.5513    -1033.5513  0.3324 -5.5175
timer: Routine,Calls,Time,% = IterSCF        1      28.226  97.61
elaps: Routine,Calls,Wall,% = IterSCF        1      28.349  97.61

siesta: Program's energy decomposition (eV):
siesta: Ebs     =      -367.675838
siesta: Eions   =      1510.441798
siesta: Ena     =       455.130393
siesta: Ekin    =       337.357172
siesta: Enl     =       146.265655
siesta: DEna    =        -2.603863
siesta: DUscf   =         1.477615
siesta: DUext   =         0.000000
siesta: Exc     =      -460.568180
siesta: eta*DQ  =         0.000000
siesta: Emadel  =         0.000000
siesta: Emeta   =         0.000000
siesta: Emolmec =         0.000000
siesta: Ekinion =         0.000000
siesta: Eharris =     -1024.997000
siesta: Etot    =     -1033.383004
siesta: FreeEng =     -1033.383004

siesta: iscf   Eharris(eV)      E_KS(eV)   FreeEng(eV)   dDmax  Ef(eV)
siesta:    1    -1024.9970    -1033.3830    -1033.3830  0.3014 -5.5667
timer: Routine,Calls,Time,% = IterSCF        1      28.262  97.60
elaps: Routine,Calls,Wall,% = IterSCF        1      28.382  97.58
siesta:    2    -1026.0080    -1024.0237    -1024.0253  0.1779 -5.7922
siesta:    2    -1028.8606    -1022.6901    -1022.6919  0.2424 -5.6831
siesta:    3    -1024.6712    -1024.9650    -1024.9671  0.0243 -5.6569
siesta:    3    -1024.6713    -1025.3535    -1025.3577  0.0588 -5.6547
siesta:    4    -1024.6679    -1024.5028    -1024.5044  0.0062 -5.6453
siesta:    4    -1024.6696    -1024.0715    -1024.0731  0.0219 -5.6516
siesta:    5    -1024.6678    -1024.5258    -1024.5274  0.0045 -5.6437
siesta:    5    -1024.6682    -1024.1503    -1024.1519  0.0150 -5.6465
siesta:    6    -1024.6678    -1024.6475    -1024.6491  0.0010 -5.6424
siesta:    6    -1024.6677    -1024.5718    -1024.5734  0.0034 -5.6423

siesta: E_KS(eV) =            -1024.6616

siesta: E_KS - E_eggbox =     -1024.6616

siesta: Atomic forces (eV/Ang):
----------------------------------------
   Tot   -0.001021   -0.001015   -0.001023
----------------------------------------
   Max    3.963291
   Res    2.647544    sqrt( Sum f_i^2 / 3N )
----------------------------------------
   Max    3.963291    constrained

Stress-tensor-Voigt (kbar):     -372.31     -372.31     -372.31      103.59      103.59      103.59
(Free)E + p*V (eV/cell)     -993.8384
Target enthalpy (eV/cell)    -1024.6632

siesta: Stress tensor (static) (eV/Ang**3):
        -0.232375    0.064656    0.064656
         0.064656   -0.232375    0.064656
         0.064656    0.064656   -0.232376

siesta: Pressure (static):        372.31052135  kBar

siesta: Stress tensor (total) (eV/Ang**3):
        -0.232375    0.064656    0.064656
         0.064656   -0.232375    0.064656
         0.064656    0.064656   -0.232376

siesta: Pressure (total):        372.31052135  kBar

mulliken: Mulliken Atomic and Orbital Populations:

Species: Si                  
Atom  Qatom  Qorb
               3s      3s      3py     3pz     3px     3py     3pz     3px     
               3Pdxy   3Pdyz   3Pdz2   3Pdxz   3Pdx2-y2
   1  4.233   0.234   0.818   0.066   0.066   0.066   0.717   0.717   0.717
              0.179   0.179   0.147   0.179   0.147
   2  3.868   0.630   0.594   0.070   0.070   0.070   0.621   0.621   0.621
              0.136   0.136   0.081   0.136   0.081
   3  3.922   0.500   0.654   0.020   0.116   0.020   0.677   0.620   0.677
              0.157   0.144   0.085   0.144   0.109
   4  4.044   0.378   0.722   0.079  -0.031   0.079   0.678   0.742   0.678
              0.157   0.162   0.137   0.162   0.101
   5  3.922   0.500   0.654   0.116   0.020   0.020   0.620   0.677   0.677
              0.144   0.144   0.103   0.157   0.091
   6  4.044   0.378   0.722  -0.031   0.079   0.079   0.742   0.678   0.678
              0.162   0.162   0.110   0.157   0.128
   7  3.922   0.500   0.654   0.020   0.020   0.116   0.677   0.677   0.620
              0.144   0.157   0.103   0.144   0.091
   8  4.044   0.378   0.722   0.079   0.079  -0.031   0.678   0.678   0.742
              0.162   0.157   0.110   0.162   0.128

mulliken: Qtot =       32.000

cgvc: No target stress found, assuming hydrostatic MD.TargetPressure.

cgvc: Target stress (kBar)
cgvc:        -0.000       0.000       0.000
cgvc:         0.000      -0.000       0.000
cgvc:         0.000       0.000      -0.000

* Maximum dynamic memory allocated =    80 MB

siesta:                 ==============================
                            Begin CG move =      1
                        ==============================

outcoor: Atomic coordinates (Ang):                          
    0.01881786    0.01881788    0.01881792   1       1  Si
    1.36761287    1.36761286    1.36761285   1       2  Si
    2.73183470    2.73183468    0.00636394   1       3  Si
    4.07487413    4.07487414    1.36914441   1       4  Si
    2.73183473    0.00636385    2.73183472   1       5  Si
    4.07487424    1.36914441    4.07487416   1       6  Si
    0.00636385    2.73183474    2.73183472   1       7  Si
    1.36914438    4.07487424    4.07487419   1       8  Si
 Kpoints in:          196 . Kpoints trimmed:          172

siesta: k-grid: Number of k-points =   172
siesta: k-grid: Cutoff (effective) =    17.987 Ang
siesta: k-grid: Supercell and displacements
siesta: k-grid:    7   0   0      0.000
siesta: k-grid:    0   7   0      0.000
siesta: k-grid:    0   0   7      0.000
Naive supercell factors:     5    5    5

superc: Internal auxiliary supercell:     5 x     5 x     5  =     125
superc: Number of atoms, orbitals, and projectors:   1000  13000  16000

outcell: Unit cell vectors (Ang):
        5.139008   -0.010854   -0.010854
       -0.010854    5.139008   -0.010854
       -0.010854   -0.010854    5.139009

outcell: Cell vector modules (Ang)   :    5.139031    5.139031    5.139031
outcell: Cell angles (23,13,12) (deg):     90.2418     90.2418     90.2418
outcell: Cell volume (Ang**3)        :    135.7164
New_DM. Step:     2
Re-using DM from previous geometry...
Re-using DM without extrapolation (not allowed)
Density Matrix sparsity pattern changed.
siesta:    7    -1024.6677    -1024.6395    -1024.6411  0.0016 -5.6423

InitMesh: MESH =    32 x    32 x    32 =       32768
InitMesh: Mesh cutoff (required, used) =   100.000   107.165 Ry
siesta:    8    -1024.6678    -1024.6712    -1024.6728  0.0003 -5.6425

siesta: iscf   Eharris(eV)      E_KS(eV)   FreeEng(eV)   dDmax  Ef(eV)
siesta:    1    -1026.3404    -1025.0045    -1025.0061  0.0575 -5.5363

siesta: E_KS(eV) =            -1024.6692

siesta: E_KS - E_eggbox =     -1024.6692

siesta: Atomic forces (eV/Ang):
----------------------------------------
   Tot   -0.001045   -0.001038   -0.001039
----------------------------------------
   Max    3.960245
   Res    2.646137    sqrt( Sum f_i^2 / 3N )
----------------------------------------
   Max    3.960245    constrained

Stress-tensor-Voigt (kbar):     -372.16     -372.16     -372.16      103.57      103.57      103.57
(Free)E + p*V (eV/cell)     -993.8582
Target enthalpy (eV/cell)    -1024.6708

siesta: Stress tensor (static) (eV/Ang**3):
        -0.232283    0.064641    0.064641
         0.064641   -0.232283    0.064641
         0.064641    0.064641   -0.232283

siesta: Pressure (static):        372.16239088  kBar

siesta: Stress tensor (total) (eV/Ang**3):
        -0.232283    0.064641    0.064641
         0.064641   -0.232283    0.064641
         0.064641    0.064641   -0.232283

siesta: Pressure (total):        372.16239088  kBar

mulliken: Mulliken Atomic and Orbital Populations:

Species: Si                  
Atom  Qatom  Qorb
               3s      3s      3py     3pz     3px     3py     3pz     3px     
               3Pdxy   3Pdyz   3Pdz2   3Pdxz   3Pdx2-y2
   1  4.234   0.234   0.818   0.066   0.066   0.066   0.717   0.717   0.717
              0.179   0.179   0.147   0.179   0.147
   2  3.868   0.630   0.593   0.070   0.070   0.070   0.621   0.621   0.621
              0.136   0.136   0.081   0.136   0.081
   3  3.922   0.501   0.654   0.020   0.116   0.020   0.677   0.620   0.677
              0.157   0.144   0.085   0.144   0.109
   4  4.044   0.378   0.722   0.079  -0.032   0.079   0.678   0.742   0.678
              0.157   0.162   0.137   0.162   0.101
   5  3.922   0.501   0.654   0.116   0.020   0.020   0.620   0.677   0.677
              0.144   0.144   0.103   0.157   0.091
   6  4.044   0.378   0.722  -0.032   0.079   0.079   0.742   0.678   0.678
              0.162   0.162   0.110   0.157   0.128
   7  3.922   0.501   0.654   0.020   0.020   0.116   0.677   0.677   0.620
              0.144   0.157   0.103   0.144   0.091
   8  4.044   0.378   0.722   0.079   0.079  -0.032   0.678   0.678   0.742
              0.162   0.157   0.110   0.162   0.128

mulliken: Qtot =       32.000

cgvc: No target stress found, assuming hydrostatic MD.TargetPressure.

cgvc: Target stress (kBar)
cgvc:        -0.000       0.000       0.000
cgvc:         0.000      -0.000       0.000
cgvc:         0.000       0.000      -0.000

* Maximum dynamic memory allocated =    80 MB

siesta:                 ==============================
                            Begin CG move =      1
                        ==============================

outcoor: Atomic coordinates (Ang):                          
    0.01882706    0.01882709    0.01882713   1       1  Si
    1.36759195    1.36759192    1.36759191   1       2  Si
    2.73182974    2.73182972    0.00634971   1       3  Si
    4.07488109    4.07488110    1.36915964   1       4  Si
    2.73182973    0.00634960    2.73182970   1       5  Si
    4.07488117    1.36915958    4.07488111   1       6  Si
    0.00634961    2.73182974    2.73182970   1       7  Si
    1.36915954    4.07488117    4.07488114   1       8  Si
 Kpoints in:          196 . Kpoints trimmed:          172

siesta: k-grid: Number of k-points =   172
siesta: k-grid: Cutoff (effective) =    17.987 Ang
siesta: k-grid: Supercell and displacements
siesta: k-grid:    7   0   0      0.000
siesta: k-grid:    0   7   0      0.000
siesta: k-grid:    0   0   7      0.000
Naive supercell factors:     5    5    5

superc: Internal auxiliary supercell:     5 x     5 x     5  =     125
superc: Number of atoms, orbitals, and projectors:   1000  13000  16000

outcell: Unit cell vectors (Ang):
        5.139011   -0.010856   -0.010856
       -0.010856    5.139011   -0.010856
       -0.010856   -0.010856    5.139011

outcell: Cell vector modules (Ang)   :    5.139034    5.139034    5.139034
outcell: Cell angles (23,13,12) (deg):     90.2418     90.2418     90.2418
outcell: Cell volume (Ang**3)        :    135.7166
New_DM. Step:     2
Re-using DM from previous geometry...
Re-using DM without extrapolation (not allowed)
Density Matrix sparsity pattern changed.
siesta:    2    -1026.3640    -1026.3156    -1026.3171  0.0308 -5.5005

InitMesh: MESH =    32 x    32 x    32 =       32768
InitMesh: Mesh cutoff (required, used) =   100.000   107.165 Ry
siesta:    3    -1026.3318    -1026.2568    -1026.2583  0.0052 -5.5211

siesta: iscf   Eharris(eV)      E_KS(eV)   FreeEng(eV)   dDmax  Ef(eV)
siesta:    1    -1026.3404    -1025.0122    -1025.0138  0.0575 -5.5364
siesta:    4    -1026.3316    -1026.3140    -1026.3155  0.0005 -5.5233
siesta:    2    -1026.3641    -1026.3155    -1026.3170  0.0305 -5.5004

siesta: E_KS(eV) =            -1026.3230

siesta: Atomic forces (eV/Ang):
----------------------------------------
   Tot   -0.011541   -0.011549   -0.011505
----------------------------------------
   Max    2.946444
   Res    2.028513    sqrt( Sum f_i^2 / 3N )
----------------------------------------
   Max    2.946444    constrained

Stress-tensor-Voigt (kbar):     -309.96     -309.96     -309.96       70.54       70.54       70.54
(Free)E + p*V (eV/cell)    -1000.0690
Target enthalpy (eV/cell)    -1026.3244

siesta: Stress tensor (static) (eV/Ang**3):
        -0.193458    0.044030    0.044030
         0.044030   -0.193458    0.044030
         0.044030    0.044030   -0.193458

siesta: Pressure (static):        309.95770391  kBar

siesta: Stress tensor (total) (eV/Ang**3):
        -0.193458    0.044030    0.044030
         0.044030   -0.193458    0.044030
         0.044030    0.044030   -0.193458

siesta: Pressure (total):        309.95770391  kBar

mulliken: Mulliken Atomic and Orbital Populations:

Species: Si                  
Atom  Qatom  Qorb
               3s      3s      3py     3pz     3px     3py     3pz     3px     
               3Pdxy   3Pdyz   3Pdz2   3Pdxz   3Pdx2-y2
   1  4.158   0.308   0.764   0.059   0.059   0.059   0.710   0.710   0.710
              0.172   0.172   0.130   0.172   0.130
   2  3.887   0.631   0.587   0.091   0.091   0.091   0.611   0.611   0.611
              0.134   0.134   0.080   0.134   0.080
   3  3.949   0.517   0.641   0.049   0.125   0.049   0.663   0.617   0.663
              0.153   0.142   0.085   0.142   0.104
   4  4.036   0.411   0.699   0.094  -0.013   0.094   0.664   0.728   0.664
              0.153   0.160   0.127   0.160   0.097
   5  3.949   0.517   0.641   0.125   0.049   0.049   0.617   0.663   0.663
              0.142   0.142   0.099   0.153   0.089
   6  4.036   0.411   0.699  -0.013   0.094   0.094   0.728   0.664   0.664
              0.160   0.160   0.104   0.153   0.119
   7  3.949   0.517   0.641   0.049   0.049   0.125   0.663   0.663   0.617
              0.142   0.153   0.099   0.142   0.089
   8  4.036   0.411   0.699   0.094   0.094  -0.013   0.664   0.664   0.728
              0.160   0.153   0.104   0.160   0.119

mulliken: Qtot =       32.000

* Maximum dynamic memory allocated =    90 MB

siesta:                 ==============================
                            Begin CG move =      2
                        ==============================

outcoor: Atomic coordinates (Ang):                          
    0.04919111    0.04919116    0.04919127   1       1  Si
    1.37983563    1.37983561    1.37983558   1       2  Si
    2.75054090    2.75054086    0.01716771   1       3  Si
    4.06596752    4.06596752    1.38471615   1       4  Si
    2.75054099    0.01716748    2.75054098   1       5  Si
    4.06596779    1.38471613    4.06596759   1       6  Si
    0.01716746    2.75054101    2.75054097   1       7  Si
    1.38471605    4.06596781    4.06596767   1       8  Si
 Kpoints in:          196 . Kpoints trimmed:          172

siesta: k-grid: Number of k-points =   172
siesta: k-grid: Cutoff (effective) =    18.206 Ang
siesta: k-grid: Supercell and displacements
siesta: k-grid:    7   0   0      0.000
siesta: k-grid:    0   7   0      0.000
siesta: k-grid:    0   0   7      0.000
Naive supercell factors:     5    5    5

superc: Internal auxiliary supercell:     5 x     5 x     5  =     125
superc: Number of atoms, orbitals, and projectors:   1000  13000  16000

outcell: Unit cell vectors (Ang):
        5.201422   -0.028220   -0.028220
       -0.028220    5.201422   -0.028220
       -0.028220   -0.028220    5.201422

outcell: Cell vector modules (Ang)   :    5.201575    5.201575    5.201575
outcell: Cell angles (23,13,12) (deg):     90.6200     90.6200     90.6200
outcell: Cell volume (Ang**3)        :    140.7109
New_DM. Step:     3
Re-using DM from previous geometry...
Re-using DM without extrapolation (not allowed)
Density Matrix sparsity pattern changed.
siesta:    3    -1026.3318    -1026.2574    -1026.2590  0.0051 -5.5210

InitMesh: MESH =    32 x    32 x    32 =       32768
InitMesh: Mesh cutoff (required, used) =   100.000   104.625 Ry
siesta:    4    -1026.3315    -1026.3138    -1026.3153  0.0005 -5.5232

siesta: iscf   Eharris(eV)      E_KS(eV)   FreeEng(eV)   dDmax  Ef(eV)
siesta:    1    -1028.2834    -1026.3443    -1026.3458  0.0821 -5.4199

siesta: E_KS(eV) =            -1026.3230

siesta: Atomic forces (eV/Ang):
----------------------------------------
   Tot   -0.011479   -0.011488   -0.011445
----------------------------------------
   Max    2.946640
   Res    2.028606    sqrt( Sum f_i^2 / 3N )
----------------------------------------
   Max    2.946640    constrained

Stress-tensor-Voigt (kbar):     -309.96     -309.96     -309.96       70.55       70.55       70.55
(Free)E + p*V (eV/cell)    -1000.0691
Target enthalpy (eV/cell)    -1026.3245

siesta: Stress tensor (static) (eV/Ang**3):
        -0.193457    0.044032    0.044032
         0.044032   -0.193457    0.044032
         0.044032    0.044032   -0.193458

siesta: Pressure (static):        309.95640598  kBar

siesta: Stress tensor (total) (eV/Ang**3):
        -0.193457    0.044032    0.044032
         0.044032   -0.193457    0.044032
         0.044032    0.044032   -0.193458

siesta: Pressure (total):        309.95640598  kBar

mulliken: Mulliken Atomic and Orbital Populations:

Species: Si                  
Atom  Qatom  Qorb
               3s      3s      3py     3pz     3px     3py     3pz     3px     
               3Pdxy   3Pdyz   3Pdz2   3Pdxz   3Pdx2-y2
   1  4.158   0.308   0.764   0.059   0.059   0.059   0.710   0.710   0.710
              0.172   0.172   0.130   0.172   0.130
   2  3.887   0.631   0.587   0.091   0.091   0.091   0.611   0.611   0.611
              0.134   0.134   0.080   0.134   0.080
   3  3.949   0.517   0.641   0.049   0.125   0.049   0.663   0.617   0.663
              0.153   0.142   0.085   0.142   0.104
   4  4.036   0.411   0.699   0.094  -0.013   0.094   0.664   0.728   0.664
              0.153   0.160   0.127   0.160   0.097
   5  3.949   0.517   0.641   0.125   0.049   0.049   0.617   0.663   0.663
              0.142   0.142   0.099   0.153   0.089
   6  4.036   0.411   0.699  -0.013   0.094   0.094   0.728   0.664   0.664
              0.160   0.160   0.104   0.153   0.119
   7  3.949   0.517   0.641   0.049   0.049   0.125   0.663   0.663   0.617
              0.142   0.153   0.099   0.142   0.089
   8  4.036   0.411   0.699   0.094   0.094  -0.013   0.664   0.664   0.728
              0.160   0.153   0.104   0.160   0.119

mulliken: Qtot =       32.000

* Maximum dynamic memory allocated =    90 MB

siesta:                 ==============================
                            Begin CG move =      2
                        ==============================

outcoor: Atomic coordinates (Ang):                          
    0.04921512    0.04921519    0.04921531   1       1  Si
    1.37978096    1.37978089    1.37978085   1       2  Si
    2.75052796    2.75052792    0.01713049   1       3  Si
    4.06598556    4.06598561    1.38475632   1       4  Si
    2.75052794    0.01713021    2.75052786   1       5  Si
    4.06598577    1.38475617    4.06598563   1       6  Si
    0.01713023    2.75052798    2.75052785   1       7  Si
    1.38475605    4.06598579    4.06598569   1       8  Si
 Kpoints in:          196 . Kpoints trimmed:          172

siesta: k-grid: Number of k-points =   172
siesta: k-grid: Cutoff (effective) =    18.206 Ang
siesta: k-grid: Supercell and displacements
siesta: k-grid:    7   0   0      0.000
siesta: k-grid:    0   7   0      0.000
siesta: k-grid:    0   0   7      0.000
Naive supercell factors:     5    5    5

superc: Internal auxiliary supercell:     5 x     5 x     5  =     125
superc: Number of atoms, orbitals, and projectors:   1000  13000  16000

outcell: Unit cell vectors (Ang):
        5.201429   -0.028226   -0.028226
       -0.028226    5.201429   -0.028226
       -0.028226   -0.028226    5.201429

outcell: Cell vector modules (Ang)   :    5.201583    5.201583    5.201583
outcell: Cell angles (23,13,12) (deg):     90.6201     90.6201     90.6201
outcell: Cell volume (Ang**3)        :    140.7115
New_DM. Step:     3
Re-using DM from previous geometry...
Re-using DM without extrapolation (not allowed)
Density Matrix sparsity pattern changed.

InitMesh: MESH =    32 x    32 x    32 =       32768
InitMesh: Mesh cutoff (required, used) =   100.000   104.625 Ry
siesta:    2    -1028.3840    -1028.1794    -1028.1807  0.0622 -5.3669
siesta:    3    -1028.2489    -1028.0236    -1028.0248  0.0137 -5.3966

siesta: iscf   Eharris(eV)      E_KS(eV)   FreeEng(eV)   dDmax  Ef(eV)
siesta:    1    -1028.2832    -1026.3442    -1026.3457  0.0821 -5.4198
siesta:    4    -1028.2479    -1028.2117    -1028.2129  0.0006 -5.3998
siesta:    2    -1028.3838    -1028.1793    -1028.1805  0.0622 -5.3668

siesta: E_KS(eV) =            -1028.2235

siesta: Atomic forces (eV/Ang):
----------------------------------------
   Tot   -0.004739   -0.004738   -0.004737
----------------------------------------
   Max    1.989063
   Res    1.226540    sqrt( Sum f_i^2 / 3N )
----------------------------------------
   Max    1.989063    constrained

Stress-tensor-Voigt (kbar):     -228.43     -228.43     -228.43       26.64       26.64       26.64
(Free)E + p*V (eV/cell)    -1008.1635
Target enthalpy (eV/cell)    -1028.2248

siesta: Stress tensor (static) (eV/Ang**3):
        -0.142571    0.016628    0.016628
         0.016628   -0.142571    0.016628
         0.016628    0.016628   -0.142571

siesta: Pressure (static):        228.42638410  kBar

siesta: Stress tensor (total) (eV/Ang**3):
        -0.142571    0.016628    0.016628
         0.016628   -0.142571    0.016628
         0.016628    0.016628   -0.142571

siesta: Pressure (total):        228.42638410  kBar

mulliken: Mulliken Atomic and Orbital Populations:

Species: Si                  
Atom  Qatom  Qorb
               3s      3s      3py     3pz     3px     3py     3pz     3px     
               3Pdxy   3Pdyz   3Pdz2   3Pdxz   3Pdx2-y2
   1  4.068   0.402   0.703   0.077   0.077   0.077   0.680   0.680   0.680
              0.158   0.158   0.109   0.158   0.109
   2  3.929   0.624   0.585   0.123   0.123   0.123   0.599   0.599   0.599
              0.132   0.132   0.078   0.132   0.078
   3  3.979   0.531   0.630   0.088   0.135   0.088   0.642   0.614   0.642
              0.147   0.140   0.085   0.140   0.096
   4  4.022   0.454   0.671   0.117   0.020   0.117   0.642   0.701   0.642
              0.147   0.154   0.112   0.154   0.091
   5  3.979   0.531   0.630   0.135   0.088   0.088   0.614   0.642   0.642
              0.140   0.140   0.093   0.147   0.087
   6  4.022   0.454   0.671   0.020   0.117   0.117   0.701   0.642   0.642
              0.154   0.154   0.096   0.147   0.107
   7  3.979   0.531   0.630   0.088   0.088   0.135   0.642   0.642   0.614
              0.140   0.147   0.093   0.140   0.087
   8  4.022   0.454   0.671   0.117   0.117   0.020   0.642   0.642   0.701
              0.154   0.147   0.096   0.154   0.107

mulliken: Qtot =       32.000

* Maximum dynamic memory allocated =    90 MB

siesta:                 ==============================
                            Begin CG move =      3
                        ==============================

outcoor: Atomic coordinates (Ang):                          
    0.09846584    0.09846595    0.09846616   1       1  Si
    1.39950005    1.39950001    1.39949994   1       2  Si
    2.77988381    2.77988373    0.03604469   1       3  Si
    4.04991155    4.04991156    1.41203904   1       4  Si
    2.77988398    0.03604422    2.77988396   1       5  Si
    4.04991209    1.41203901    4.04991168   1       6  Si
    0.03604420    2.77988402    2.77988393   1       7  Si
    1.41203885    4.04991212    4.04991184   1       8  Si
 Kpoints in:          108 . Kpoints trimmed:          108

siesta: k-grid: Number of k-points =   108
siesta: k-grid: Cutoff (effective) =    15.906 Ang
siesta: k-grid: Supercell and displacements
siesta: k-grid:    6   0   0      0.500
siesta: k-grid:    0   6   0      0.500
siesta: k-grid:    0   0   6      0.500
Naive supercell factors:     5    5    5

superc: Internal auxiliary supercell:     5 x     5 x     5  =     125
superc: Number of atoms, orbitals, and projectors:   1000  13000  16000

outcell: Unit cell vectors (Ang):
        5.301284   -0.056005   -0.056005
       -0.056005    5.301284   -0.056005
       -0.056005   -0.056005    5.301284

outcell: Cell vector modules (Ang)   :    5.301875    5.301875    5.301876
outcell: Cell angles (23,13,12) (deg):     91.2040     91.2040     91.2040
outcell: Cell volume (Ang**3)        :    148.9350
New_DM. Step:     4
Re-using DM from previous geometry...
Re-using DM without extrapolation (not allowed)
Density Matrix sparsity pattern changed.
siesta:    3    -1028.2488    -1028.0235    -1028.0247  0.0137 -5.3965

InitMesh: MESH =    32 x    32 x    32 =       32768
InitMesh: Mesh cutoff (required, used) =   100.000   100.771 Ry

siesta: iscf   Eharris(eV)      E_KS(eV)   FreeEng(eV)   dDmax  Ef(eV)
siesta:    1    -1029.8931    -1027.2319    -1027.2332  0.0826 -5.3544
siesta:    4    -1028.2478    -1028.2116    -1028.2129  0.0006 -5.3997
siesta:    2    -1030.3408    -1029.4239    -1029.4239  0.1074 -5.3691

siesta: E_KS(eV) =            -1028.2234

siesta: Atomic forces (eV/Ang):
----------------------------------------
   Tot   -0.003852   -0.003856   -0.003877
----------------------------------------
   Max    1.990371
   Res    1.226767    sqrt( Sum f_i^2 / 3N )
----------------------------------------
   Max    1.990371    constrained

Stress-tensor-Voigt (kbar):     -228.39     -228.39     -228.39       26.66       26.66       26.66
(Free)E + p*V (eV/cell)    -1008.1664
Target enthalpy (eV/cell)    -1028.2246

siesta: Stress tensor (static) (eV/Ang**3):
        -0.142548    0.016639    0.016639
         0.016639   -0.142548    0.016639
         0.016639    0.016639   -0.142548

siesta: Pressure (static):        228.39016976  kBar

siesta: Stress tensor (total) (eV/Ang**3):
        -0.142548    0.016639    0.016639
         0.016639   -0.142548    0.016639
         0.016639    0.016639   -0.142548

siesta: Pressure (total):        228.39016976  kBar

mulliken: Mulliken Atomic and Orbital Populations:

Species: Si                  
Atom  Qatom  Qorb
               3s      3s      3py     3pz     3px     3py     3pz     3px     
               3Pdxy   3Pdyz   3Pdz2   3Pdxz   3Pdx2-y2
   1  4.068   0.402   0.703   0.077   0.077   0.077   0.680   0.680   0.680
              0.158   0.158   0.109   0.158   0.109
   2  3.929   0.624   0.585   0.123   0.123   0.123   0.599   0.599   0.599
              0.132   0.132   0.078   0.132   0.078
   3  3.979   0.531   0.630   0.088   0.135   0.088   0.642   0.614   0.642
              0.147   0.140   0.085   0.140   0.096
   4  4.022   0.454   0.671   0.117   0.020   0.117   0.642   0.701   0.642
              0.147   0.154   0.112   0.154   0.091
   5  3.979   0.531   0.630   0.135   0.088   0.088   0.614   0.642   0.642
              0.140   0.140   0.093   0.147   0.087
   6  4.022   0.454   0.671   0.020   0.117   0.117   0.701   0.642   0.642
              0.154   0.154   0.096   0.147   0.107
   7  3.979   0.531   0.630   0.088   0.088   0.135   0.642   0.642   0.614
              0.140   0.147   0.093   0.140   0.087
   8  4.022   0.454   0.671   0.117   0.117   0.020   0.642   0.642   0.701
              0.154   0.147   0.096   0.154   0.107

mulliken: Qtot =       32.000

* Maximum dynamic memory allocated =    90 MB

siesta:                 ==============================
                            Begin CG move =      3
                        ==============================

outcoor: Atomic coordinates (Ang):                          
    0.09851380    0.09851393    0.09851419   1       1  Si
    1.39939062    1.39939049    1.39939039   1       2  Si
    2.77985795    2.77985788    0.03597012   1       3  Si
    4.04994726    4.04994735    1.41212064   1       4  Si
    2.77985792    0.03596956    2.77985775   1       5  Si
    4.04994766    1.41212033    4.04994738   1       6  Si
    0.03596959    2.77985799    2.77985773   1       7  Si
    1.41212010    4.04994770    4.04994751   1       8  Si
 Kpoints in:          108 . Kpoints trimmed:          108

siesta: k-grid: Number of k-points =   108
siesta: k-grid: Cutoff (effective) =    15.906 Ang
siesta: k-grid: Supercell and displacements
siesta: k-grid:    6   0   0      0.500
siesta: k-grid:    0   6   0      0.500
siesta: k-grid:    0   0   6      0.500
Naive supercell factors:     5    5    5

superc: Internal auxiliary supercell:     5 x     5 x     5  =     125
superc: Number of atoms, orbitals, and projectors:   1000  13000  16000

outcell: Unit cell vectors (Ang):
        5.301298   -0.056018   -0.056018
       -0.056018    5.301298   -0.056018
       -0.056018   -0.056018    5.301298

outcell: Cell vector modules (Ang)   :    5.301890    5.301890    5.301890
outcell: Cell angles (23,13,12) (deg):     91.2043     91.2043     91.2043
outcell: Cell volume (Ang**3)        :    148.9362
New_DM. Step:     4
Re-using DM from previous geometry...
Re-using DM without extrapolation (not allowed)
Density Matrix sparsity pattern changed.
siesta:    3    -1029.7369    -1029.1029    -1029.1029  0.0318 -5.3462

InitMesh: MESH =    32 x    32 x    32 =       32768
InitMesh: Mesh cutoff (required, used) =   100.000   100.770 Ry
siesta:    4    -1029.7343    -1029.6315    -1029.6315  0.0018 -5.3490

siesta: iscf   Eharris(eV)      E_KS(eV)   FreeEng(eV)   dDmax  Ef(eV)
siesta:    1    -1029.8929    -1027.2316    -1027.2328  0.0826 -5.3543
siesta:    5    -1029.7342    -1029.6630    -1029.6630  0.0011 -5.3484
siesta:    2    -1030.3405    -1029.4237    -1029.4237  0.1074 -5.3690
siesta:    6    -1029.7343    -1029.7190    -1029.7190  0.0005 -5.3474
siesta:    3    -1029.7366    -1029.1027    -1029.1027  0.0318 -5.3461

siesta: E_KS(eV) =            -1029.7302

siesta: Atomic forces (eV/Ang):
----------------------------------------
   Tot    0.000054    0.000062    0.000067
----------------------------------------
   Max    0.891231
   Res    0.595225    sqrt( Sum f_i^2 / 3N )
----------------------------------------
   Max    0.891231    constrained

Stress-tensor-Voigt (kbar):     -136.67     -136.67     -136.67      -23.29      -23.29      -23.29
(Free)E + p*V (eV/cell)    -1017.0262
Target enthalpy (eV/cell)    -1029.7302

siesta: Stress tensor (static) (eV/Ang**3):
        -0.085299   -0.014533   -0.014533
        -0.014533   -0.085299   -0.014533
        -0.014533   -0.014533   -0.085299

siesta: Pressure (static):        136.66594497  kBar

siesta: Stress tensor (total) (eV/Ang**3):
        -0.085299   -0.014533   -0.014533
        -0.014533   -0.085299   -0.014533
        -0.014533   -0.014533   -0.085299

siesta: Pressure (total):        136.66594497  kBar

mulliken: Mulliken Atomic and Orbital Populations:

Species: Si                  
Atom  Qatom  Qorb
               3s      3s      3py     3pz     3px     3py     3pz     3px     
               3Pdxy   3Pdyz   3Pdz2   3Pdxz   3Pdx2-y2
   1  3.998   0.553   0.617   0.146   0.146   0.146   0.604   0.604   0.604
              0.136   0.136   0.085   0.136   0.085
   2  3.979   0.616   0.584   0.164   0.164   0.164   0.581   0.581   0.581
              0.130   0.130   0.078   0.130   0.078
   3  4.000   0.541   0.624   0.147   0.139   0.147   0.604   0.610   0.604
              0.137   0.137   0.086   0.137   0.085
   4  4.008   0.520   0.635   0.155   0.100   0.155   0.605   0.638   0.605
              0.138   0.141   0.093   0.141   0.084
   5  4.000   0.541   0.624   0.139   0.147   0.147   0.610   0.604   0.604
              0.137   0.137   0.085   0.137   0.086
   6  4.008   0.520   0.635   0.100   0.155   0.155   0.638   0.605   0.605
              0.141   0.141   0.086   0.138   0.090
   7  4.000   0.541   0.624   0.147   0.147   0.139   0.604   0.604   0.610
              0.137   0.137   0.085   0.137   0.086
   8  4.008   0.520   0.635   0.155   0.155   0.100   0.605   0.605   0.638
              0.141   0.138   0.086   0.141   0.090

mulliken: Qtot =       32.000

* Maximum dynamic memory allocated =    90 MB

siesta:                 ==============================
                            Begin CG move =      4
                        ==============================

outcoor: Atomic coordinates (Ang):                          
    0.15267054    0.15267071    0.15267105   1       1  Si
    1.42090709    1.42090703    1.42090692   1       2  Si
    2.81079129    2.81079116    0.05865347   1       3  Si
    4.03005546    4.03005548    1.44490925   1       4  Si
    2.81079155    0.05865273    2.81079152   1       5  Si
    4.03005629    1.44490921    4.03005565   1       6  Si
    0.05865270    2.81079161    2.81079148   1       7  Si
    1.44490897    4.03005635    4.03005591   1       8  Si
 Kpoints in:          108 . Kpoints trimmed:          108

siesta: k-grid: Number of k-points =   108
siesta: k-grid: Cutoff (effective) =    16.232 Ang
siesta: k-grid: Supercell and displacements
siesta: k-grid:    6   0   0      0.500
siesta: k-grid:    0   6   0      0.500
siesta: k-grid:    0   0   6      0.500
Naive supercell factors:     5    5    5

superc: Internal auxiliary supercell:     5 x     5 x     5  =     125
superc: Number of atoms, orbitals, and projectors:   1000  13000  16000

outcell: Unit cell vectors (Ang):
        5.409236   -0.086042   -0.086042
       -0.086042    5.409236   -0.086042
       -0.086042   -0.086042    5.409236

outcell: Cell vector modules (Ang)   :    5.410604    5.410604    5.410604
outcell: Cell angles (23,13,12) (deg):     91.8076     91.8076     91.8076
outcell: Cell volume (Ang**3)        :    158.1519
siesta:    4    -1029.7340    -1029.6312    -1029.6312  0.0018 -5.3489
New_DM. Step:     5
Re-using DM from previous geometry...
Re-using DM without extrapolation (not allowed)
Density Matrix sparsity pattern changed.

InitMesh: MESH =    36 x    36 x    36 =       46656
InitMesh: Mesh cutoff (required, used) =   100.000   122.605 Ry
siesta:    5    -1029.7340    -1029.6628    -1029.6628  0.0011 -5.3483

siesta: iscf   Eharris(eV)      E_KS(eV)   FreeEng(eV)   dDmax  Ef(eV)
siesta:    1    -1029.8952    -1027.8325    -1027.8325  0.0666 -5.2140
siesta:    6    -1029.7340    -1029.7187    -1029.7187  0.0005 -5.3472
siesta:    2    -1030.7055    -1029.0740    -1029.0740  0.1068 -5.2715

siesta: E_KS(eV) =            -1029.7300

siesta: Atomic forces (eV/Ang):
----------------------------------------
   Tot    0.000420    0.000423    0.000429
----------------------------------------
   Max    0.894044
   Res    0.595969    sqrt( Sum f_i^2 / 3N )
----------------------------------------
   Max    0.894044    constrained

Stress-tensor-Voigt (kbar):     -136.67     -136.67     -136.67      -23.27      -23.27      -23.27
(Free)E + p*V (eV/cell)    -1017.0253
Target enthalpy (eV/cell)    -1029.7300

siesta: Stress tensor (static) (eV/Ang**3):
        -0.085303   -0.014522   -0.014522
        -0.014522   -0.085303   -0.014522
        -0.014522   -0.014522   -0.085303

siesta: Pressure (static):        136.67222521  kBar

siesta: Stress tensor (total) (eV/Ang**3):
        -0.085303   -0.014522   -0.014522
        -0.014522   -0.085303   -0.014522
        -0.014522   -0.014522   -0.085303

siesta: Pressure (total):        136.67222521  kBar

mulliken: Mulliken Atomic and Orbital Populations:

Species: Si                  
Atom  Qatom  Qorb
               3s      3s      3py     3pz     3px     3py     3pz     3px     
               3Pdxy   3Pdyz   3Pdz2   3Pdxz   3Pdx2-y2
   1  3.998   0.553   0.617   0.146   0.146   0.146   0.604   0.604   0.604
              0.136   0.136   0.085   0.136   0.085
   2  3.979   0.616   0.584   0.164   0.164   0.164   0.581   0.581   0.581
              0.130   0.130   0.078   0.130   0.078
   3  4.000   0.541   0.624   0.147   0.139   0.147   0.604   0.610   0.604
              0.137   0.137   0.086   0.137   0.085
   4  4.008   0.520   0.635   0.155   0.100   0.155   0.605   0.638   0.605
              0.138   0.141   0.093   0.141   0.084
   5  4.000   0.541   0.624   0.139   0.147   0.147   0.610   0.604   0.604
              0.137   0.137   0.085   0.137   0.086
   6  4.008   0.520   0.635   0.100   0.155   0.155   0.638   0.605   0.605
              0.141   0.141   0.086   0.138   0.090
   7  4.000   0.541   0.624   0.147   0.147   0.139   0.604   0.604   0.610
              0.137   0.137   0.085   0.137   0.086
   8  4.008   0.520   0.635   0.155   0.155   0.100   0.605   0.605   0.638
              0.141   0.138   0.086   0.141   0.090

mulliken: Qtot =       32.000

* Maximum dynamic memory allocated =    90 MB

siesta:                 ==============================
                            Begin CG move =      4
                        ==============================

outcoor: Atomic coordinates (Ang):                          
    0.15274078    0.15274099    0.15274140   1       1  Si
    1.42073589    1.42073567    1.42073552   1       2  Si
    2.81074908    2.81074897    0.05853602   1       3  Si
    4.03011167    4.03011181    1.44503521   1       4  Si
    2.81074902    0.05853515    2.81074876   1       5  Si
    4.03011231    1.44503472    4.03011186   1       6  Si
    0.05853520    2.81074914    2.81074873   1       7  Si
    1.44503436    4.03011236    4.03011206   1       8  Si
 Kpoints in:          108 . Kpoints trimmed:          108

siesta: k-grid: Number of k-points =   108
siesta: k-grid: Cutoff (effective) =    16.232 Ang
siesta: k-grid: Supercell and displacements
siesta: k-grid:    6   0   0      0.500
siesta: k-grid:    0   6   0      0.500
siesta: k-grid:    0   0   6      0.500
Naive supercell factors:     5    5    5

superc: Internal auxiliary supercell:     5 x     5 x     5  =     125
superc: Number of atoms, orbitals, and projectors:   1000  13000  16000

outcell: Unit cell vectors (Ang):
        5.409250   -0.086060   -0.086059
       -0.086060    5.409250   -0.086059
       -0.086059   -0.086059    5.409251

outcell: Cell vector modules (Ang)   :    5.410619    5.410619    5.410620
outcell: Cell angles (23,13,12) (deg):     91.8080     91.8080     91.8080
outcell: Cell volume (Ang**3)        :    158.1532
New_DM. Step:     5
Re-using DM from previous geometry...
Re-using DM without extrapolation (not allowed)
Density Matrix sparsity pattern changed.

InitMesh: MESH =    36 x    36 x    36 =       46656
InitMesh: Mesh cutoff (required, used) =   100.000   122.604 Ry
siesta:    3    -1029.6188    -1028.8961    -1028.8982  0.0343 -5.2363

siesta: iscf   Eharris(eV)      E_KS(eV)   FreeEng(eV)   dDmax  Ef(eV)
siesta:    1    -1029.8952    -1027.8325    -1027.8325  0.0666 -5.2142
siesta:    4    -1029.6180    -1029.4480    -1029.4480  0.0037 -5.2394
siesta:    2    -1030.7050    -1029.0743    -1029.0744  0.1068 -5.2714
siesta:    5    -1029.6178    -1029.5178    -1029.5178  0.0018 -5.2394
siesta:    3    -1029.6190    -1028.8964    -1028.8984  0.0343 -5.2364
siesta:    6    -1029.6178    -1029.5822    -1029.5822  0.0005 -5.2390
siesta:    4    -1029.6181    -1029.4482    -1029.4482  0.0037 -5.2395

siesta: E_KS(eV) =            -1029.5976

siesta: Atomic forces (eV/Ang):
----------------------------------------
   Tot    0.000135    0.000140    0.000120
----------------------------------------
   Max    1.802599
   Res    1.257080    sqrt( Sum f_i^2 / 3N )
----------------------------------------
   Max    1.802599    constrained

Stress-tensor-Voigt (kbar):      -75.40      -75.40      -75.40      -60.80      -60.80      -60.80
(Free)E + p*V (eV/cell)    -1022.1551
Target enthalpy (eV/cell)    -1029.5976

siesta: Stress tensor (static) (eV/Ang**3):
        -0.047059   -0.037950   -0.037949
        -0.037950   -0.047059   -0.037949
        -0.037949   -0.037949   -0.047059

siesta: Pressure (static):         75.39794221  kBar

siesta: Stress tensor (total) (eV/Ang**3):
        -0.047059   -0.037950   -0.037949
        -0.037950   -0.047059   -0.037949
        -0.037949   -0.037949   -0.047059

siesta: Pressure (total):         75.39794221  kBar

mulliken: Mulliken Atomic and Orbital Populations:

Species: Si                  
Atom  Qatom  Qorb
               3s      3s      3py     3pz     3px     3py     3pz     3px     
               3Pdxy   3Pdyz   3Pdz2   3Pdxz   3Pdx2-y2
   1  4.009   0.701   0.545   0.251   0.251   0.251   0.509   0.509   0.509
              0.115   0.115   0.067   0.115   0.067
   2  4.003   0.577   0.608   0.193   0.193   0.193   0.565   0.565   0.565
              0.129   0.129   0.079   0.129   0.079
   3  4.002   0.539   0.625   0.202   0.129   0.202   0.564   0.610   0.564
              0.129   0.135   0.091   0.135   0.075
   4  3.995   0.578   0.605   0.193   0.192   0.193   0.565   0.566   0.565
              0.128   0.127   0.080   0.127   0.078
   5  4.002   0.539   0.625   0.129   0.202   0.202   0.610   0.564   0.564
              0.135   0.135   0.079   0.129   0.087
   6  3.995   0.578   0.605   0.192   0.193   0.193   0.566   0.565   0.565
              0.127   0.127   0.079   0.128   0.079
   7  4.002   0.539   0.625   0.202   0.202   0.129   0.564   0.564   0.610
              0.135   0.129   0.079   0.135   0.087
   8  3.995   0.578   0.605   0.193   0.193   0.192   0.565   0.565   0.566
              0.127   0.128   0.079   0.127   0.079

mulliken: Qtot =       32.000

* Maximum dynamic memory allocated =    90 MB

siesta:                 ==============================
                            Begin CG move =      5
                        ==============================

outcoor: Atomic coordinates (Ang):                          
    0.12654842    0.12654857    0.12654884   1       1  Si
    1.41061934    1.41061929    1.41061920   1       2  Si
    2.79607118    2.79607107    0.04752310   1       3  Si
    4.03990392    4.03990394    1.42871009   1       4  Si
    2.79607140    0.04752250    2.79607138   1       5  Si
    4.03990462    1.42871005    4.03990409   1       6  Si
    0.04752247    2.79607145    2.79607134   1       7  Si
    1.42870985    4.03990466    4.03990430   1       8  Si
 Kpoints in:          108 . Kpoints trimmed:          108

siesta: k-grid: Number of k-points =   108
siesta: k-grid: Cutoff (effective) =    16.075 Ang
siesta: k-grid: Supercell and displacements
siesta: k-grid:    6   0   0      0.500
siesta: k-grid:    0   6   0      0.500
siesta: k-grid:    0   0   6      0.500
Naive supercell factors:     5    5    5

superc: Internal auxiliary supercell:     5 x     5 x     5  =     125
superc: Number of atoms, orbitals, and projectors:   1000  13000  16000

outcell: Unit cell vectors (Ang):
        5.357454   -0.071634   -0.071634
       -0.071634    5.357454   -0.071634
       -0.071634   -0.071634    5.357454

outcell: Cell vector modules (Ang)   :    5.358412    5.358412    5.358412
outcell: Cell angles (23,13,12) (deg):     91.5216     91.5216     91.5216
outcell: Cell volume (Ang**3)        :    153.6881
New_DM. Step:     6
Re-using DM from previous geometry...
Re-using DM without extrapolation (not allowed)
Density Matrix sparsity pattern changed.

InitMesh: MESH =    36 x    36 x    36 =       46656
InitMesh: Mesh cutoff (required, used) =   100.000   124.929 Ry
siesta:    5    -1029.6179    -1029.5179    -1029.5179  0.0018 -5.2395

siesta: iscf   Eharris(eV)      E_KS(eV)   FreeEng(eV)   dDmax  Ef(eV)
siesta:    1    -1029.9160    -1030.4771    -1030.4772  0.0269 -5.3111
siesta:    6    -1029.6179    -1029.5824    -1029.5824  0.0005 -5.2391
siesta:    2    -1030.0766    -1029.7455    -1029.7455  0.0594 -5.3071

siesta: E_KS(eV) =            -1029.5977

siesta: Atomic forces (eV/Ang):
----------------------------------------
   Tot   -0.000105   -0.000101   -0.000106
----------------------------------------
   Max    1.800090
   Res    1.256780    sqrt( Sum f_i^2 / 3N )
----------------------------------------
   Max    1.800090    constrained

Stress-tensor-Voigt (kbar):      -75.41      -75.41      -75.41      -60.76      -60.76      -60.76
(Free)E + p*V (eV/cell)    -1022.1542
Target enthalpy (eV/cell)    -1029.5977

siesta: Stress tensor (static) (eV/Ang**3):
        -0.047065   -0.037921   -0.037921
        -0.037921   -0.047065   -0.037921
        -0.037921   -0.037921   -0.047065

siesta: Pressure (static):         75.40745068  kBar

siesta: Stress tensor (total) (eV/Ang**3):
        -0.047065   -0.037921   -0.037921
        -0.037921   -0.047065   -0.037921
        -0.037921   -0.037921   -0.047065

siesta: Pressure (total):         75.40745068  kBar

mulliken: Mulliken Atomic and Orbital Populations:

Species: Si                  
Atom  Qatom  Qorb
               3s      3s      3py     3pz     3px     3py     3pz     3px     
               3Pdxy   3Pdyz   3Pdz2   3Pdxz   3Pdx2-y2
   1  4.009   0.701   0.545   0.251   0.251   0.251   0.509   0.509   0.509
              0.115   0.115   0.067   0.115   0.067
   2  4.003   0.577   0.608   0.193   0.193   0.193   0.565   0.565   0.565
              0.129   0.129   0.079   0.129   0.079
   3  4.001   0.539   0.625   0.202   0.129   0.202   0.564   0.610   0.564
              0.129   0.135   0.091   0.135   0.075
   4  3.995   0.578   0.605   0.193   0.192   0.193   0.565   0.566   0.565
              0.128   0.127   0.080   0.127   0.078
   5  4.001   0.539   0.625   0.129   0.202   0.202   0.610   0.564   0.564
              0.135   0.135   0.079   0.129   0.087
   6  3.995   0.578   0.605   0.192   0.193   0.193   0.566   0.565   0.565
              0.127   0.127   0.079   0.128   0.079
   7  4.001   0.539   0.625   0.202   0.202   0.129   0.564   0.564   0.610
              0.135   0.129   0.079   0.135   0.087
   8  3.995   0.578   0.605   0.193   0.193   0.192   0.565   0.565   0.566
              0.127   0.128   0.079   0.127   0.079

mulliken: Qtot =       32.000

* Maximum dynamic memory allocated =    90 MB

siesta:                 ==============================
                            Begin CG move =      5
                        ==============================

outcoor: Atomic coordinates (Ang):                          
    0.12662403    0.12662421    0.12662454   1       1  Si
    1.41048424    1.41048406    1.41048393   1       2  Si
    2.79604597    2.79604589    0.04743307   1       3  Si
    4.03994437    4.03994449    1.42882434   1       4  Si
    2.79604593    0.04743235    2.79604571   1       5  Si
    4.03994490    1.42882394    4.03994453   1       6  Si
    0.04743239    2.79604603    2.79604569   1       7  Si
    1.42882364    4.03994494    4.03994470   1       8  Si
 Kpoints in:          108 . Kpoints trimmed:          108

siesta: k-grid: Number of k-points =   108
siesta: k-grid: Cutoff (effective) =    16.075 Ang
siesta: k-grid: Supercell and displacements
siesta: k-grid:    6   0   0      0.500
siesta: k-grid:    0   6   0      0.500
siesta: k-grid:    0   0   6      0.500
Naive supercell factors:     5    5    5

superc: Internal auxiliary supercell:     5 x     5 x     5  =     125
superc: Number of atoms, orbitals, and projectors:   1000  13000  16000

outcell: Unit cell vectors (Ang):
        5.357501   -0.071658   -0.071658
       -0.071658    5.357501   -0.071658
       -0.071658   -0.071658    5.357501

outcell: Cell vector modules (Ang)   :    5.358459    5.358459    5.358459
outcell: Cell angles (23,13,12) (deg):     91.5221     91.5221     91.5221
outcell: Cell volume (Ang**3)        :    153.6921
New_DM. Step:     6
Re-using DM from previous geometry...
Re-using DM without extrapolation (not allowed)
Density Matrix sparsity pattern changed.

InitMesh: MESH =    36 x    36 x    36 =       46656
InitMesh: Mesh cutoff (required, used) =   100.000   124.927 Ry
siesta:    3    -1029.8579    -1029.9907    -1029.9907  0.0140 -5.3059

siesta: iscf   Eharris(eV)      E_KS(eV)   FreeEng(eV)   dDmax  Ef(eV)
siesta:    1    -1029.9157    -1030.4766    -1030.4766  0.0269 -5.3111
siesta:    4    -1029.8575    -1029.8306    -1029.8306  0.0020 -5.3044
siesta:    2    -1030.0761    -1029.7455    -1029.7455  0.0594 -5.3072
siesta:    5    -1029.8574    -1029.8367    -1029.8367  0.0012 -5.3040
siesta:    3    -1029.8576    -1029.9905    -1029.9905  0.0140 -5.3060
siesta:    6    -1029.8574    -1029.8516    -1029.8516  0.0003 -5.3036
siesta:    4    -1029.8573    -1029.8304    -1029.8304  0.0020 -5.3045

siesta: E_KS(eV) =            -1029.8546

siesta: Atomic forces (eV/Ang):
----------------------------------------
   Tot   -0.011564   -0.011555   -0.011574
----------------------------------------
   Max    1.121324
   Res    0.860026    sqrt( Sum f_i^2 / 3N )
----------------------------------------
   Max    1.121324    constrained

Stress-tensor-Voigt (kbar):     -100.29     -100.29     -100.30      -44.32      -44.32      -44.32
(Free)E + p*V (eV/cell)    -1020.2340
Target enthalpy (eV/cell)    -1029.8546

siesta: Stress tensor (static) (eV/Ang**3):
        -0.062598   -0.027665   -0.027664
        -0.027665   -0.062598   -0.027664
        -0.027664   -0.027664   -0.062599

siesta: Pressure (static):        100.29486071  kBar

siesta: Stress tensor (total) (eV/Ang**3):
        -0.062598   -0.027665   -0.027664
        -0.027665   -0.062598   -0.027664
        -0.027664   -0.027664   -0.062599

siesta: Pressure (total):        100.29486071  kBar

mulliken: Mulliken Atomic and Orbital Populations:

Species: Si                  
Atom  Qatom  Qorb
               3s      3s      3py     3pz     3px     3py     3pz     3px     
               3Pdxy   3Pdyz   3Pdz2   3Pdxz   3Pdx2-y2
   1  3.990   0.630   0.579   0.195   0.195   0.195   0.557   0.557   0.557
              0.125   0.125   0.075   0.125   0.075
   2  3.991   0.599   0.594   0.182   0.182   0.182   0.570   0.570   0.570
              0.129   0.129   0.078   0.129   0.078
   3  4.004   0.543   0.622   0.179   0.135   0.179   0.582   0.611   0.582
              0.133   0.136   0.088   0.136   0.080
   4  4.002   0.555   0.616   0.174   0.151   0.174   0.584   0.599   0.584
              0.132   0.134   0.085   0.134   0.081
   5  4.004   0.543   0.622   0.135   0.179   0.179   0.611   0.582   0.582
              0.136   0.136   0.082   0.133   0.086
   6  4.002   0.555   0.616   0.151   0.174   0.174   0.599   0.584   0.584
              0.134   0.134   0.082   0.132   0.084
   7  4.004   0.543   0.622   0.179   0.179   0.135   0.582   0.582   0.611
              0.136   0.133   0.082   0.136   0.086
   8  4.002   0.555   0.616   0.174   0.174   0.151   0.584   0.584   0.599
              0.134   0.132   0.082   0.134   0.084

mulliken: Qtot =       32.000

cgvc: Finished line minimization    1.  Mean atomic displacement =    0.1583

* Maximum dynamic memory allocated =    90 MB

siesta:                 ==============================
                            Begin CG move =      6
                        ==============================

outcoor: Atomic coordinates (Ang):                          
    0.10606725    0.10606736    0.10606759   1       1  Si
    1.48982174    1.48982180    1.48982206   1       2  Si
    2.82475569    2.82475576    0.10136899   1       3  Si
    4.17862471    4.17862479    1.49100497   1       4  Si
    2.82475630    0.10136877    2.82475610   1       5  Si
    4.17862488    1.49100522    4.17862479   1       6  Si
    0.10136876    2.82475644    2.82475610   1       7  Si
    1.49100508    4.17862490    4.17862494   1       8  Si
 Kpoints in:          108 . Kpoints trimmed:          108

siesta: k-grid: Number of k-points =   108
siesta: k-grid: Cutoff (effective) =    16.397 Ang
siesta: k-grid: Supercell and displacements
siesta: k-grid:    6   0   0      0.500
siesta: k-grid:    0   6   0      0.500
siesta: k-grid:    0   0   6      0.500
Naive supercell factors:     5    5    5

superc: Internal auxiliary supercell:     5 x     5 x     5  =     125
superc: Number of atoms, orbitals, and projectors:   1000  13000  16000

outcell: Unit cell vectors (Ang):
        5.465406   -0.045896   -0.045896
       -0.045896    5.465406   -0.045896
       -0.045896   -0.045896    5.465406

outcell: Cell vector modules (Ang)   :    5.465791    5.465791    5.465792
outcell: Cell angles (23,13,12) (deg):     90.9582     90.9582     90.9582
outcell: Cell volume (Ang**3)        :    163.2206
New_DM. Step:     7
Re-using DM from previous geometry...
Re-using DM without extrapolation (not allowed)
Density Matrix sparsity pattern changed.

InitMesh: MESH =    36 x    36 x    36 =       46656
InitMesh: Mesh cutoff (required, used) =   100.000   119.963 Ry
siesta:    5    -1029.8572    -1029.8365    -1029.8365  0.0012 -5.3041

siesta: iscf   Eharris(eV)      E_KS(eV)   FreeEng(eV)   dDmax  Ef(eV)
siesta:    1    -1030.5642    -1028.5459    -1028.5459  0.0632 -5.0424
siesta:    6    -1029.8572    -1029.8514    -1029.8514  0.0003 -5.3037
siesta:    2    -1030.6558    -1030.4617    -1030.4617  0.0608 -5.0394

siesta: E_KS(eV) =            -1029.8544

[...]
         10.59  11.03  11.12  11.35  11.46  11.78  12.12  12.40  13.03  13.35
         14.04  14.24  14.49  14.52  14.68  15.51  15.88  16.17  16.39  17.05
         17.65  17.76  18.64  18.82  19.44  20.63  21.75  22.30  22.68  23.13
         23.29  23.62  24.60  24.96  26.14  26.35  31.60  36.17  37.56  39.62
         41.35  50.18  52.21  53.58  55.36  64.23  64.43  64.52  66.76  70.80
         76.14  86.77  94.01  95.25
  93  1 -16.07 -15.41 -14.29 -13.96 -12.12 -11.75 -10.35  -9.48  -9.35  -9.18
         -8.18  -7.94  -7.75  -7.50  -7.27  -6.37  -3.21  -3.17  -2.76  -2.10
         -1.99  -1.61  -1.59  -0.84  -0.83  -0.65  -0.37  -0.29   0.61   0.67
          1.28   2.05   2.08   2.08   2.73   3.56   4.03   4.05   4.67   5.70
          5.81   5.86   7.70   7.87   8.34   8.49   9.01   9.42   9.51  10.23
         10.58  11.01  11.11  11.35  11.45  11.79  12.12  12.39  13.03  13.32
         14.04  14.20  14.48  14.51  14.69  15.54  15.90  16.17  16.38  17.06
         17.66  17.77  18.65  18.83  19.45  20.64  21.74  22.28  22.69  23.13
         23.29  23.62  24.58  24.98  26.14  26.37  31.68  36.16  37.56  39.54
         41.53  50.02  52.12  53.52  55.31  64.26  64.52  64.53  66.82  70.85
         76.21  86.82  94.11  95.20
  94  1 -15.87 -15.24 -14.36 -14.36 -12.02 -12.02 -11.00 -10.20  -8.78  -8.78
         -7.78  -7.49  -7.49  -7.19  -6.68  -6.67  -3.32  -3.18  -2.96  -2.96
         -2.07  -1.43  -1.43  -1.28  -1.23  -0.47  -0.26   0.47   0.48   0.69
          0.92   0.92   2.92   2.92   3.29   3.41   5.01   5.12   5.17   5.50
          5.52   5.52   6.52   6.52   7.32   8.30   8.95   9.17   9.18   9.20
          9.49   9.49  11.09  11.40  11.40  11.83  13.13  13.37  13.50  13.51
         13.55  14.59  15.01  15.01  16.10  16.10  16.33  16.49  17.19  17.39
         17.39  17.94  17.95  19.16  19.25  19.25  20.76  21.90  22.02  23.63
         24.47  24.47  25.16  27.10  27.57  27.57  31.90  32.75  35.30  35.31
         41.17  48.92  54.51  54.52  57.74  59.43  63.66  65.62  65.63  68.35
         84.11  88.07  88.07  94.19
  95  1 -15.48 -14.94 -14.94 -14.60 -12.03 -11.65 -11.65 -11.02  -8.33  -7.91
         -7.91  -7.21  -6.97  -6.93  -6.93  -6.38  -3.30  -3.18  -2.86  -2.86
         -2.09  -2.09  -1.77  -1.71  -1.31  -0.94  -0.83  -0.82   1.42   1.42
          2.19   2.41   2.58   3.25   3.61   4.06   4.06   4.44   4.44   4.78
          5.23   7.06   7.06   7.19   7.20   7.83   8.11   8.65   8.93   8.95
          9.01   9.31   9.35  10.08  10.52  10.52  13.84  14.09  14.09  15.07
         15.07  15.13  15.47  15.62  15.79  16.00  16.45  16.45  17.61  18.36
         18.36  18.39  18.94  18.94  19.38  19.69  20.47  20.47  21.12  21.51
         26.87  26.98  26.99  28.40  28.64  32.20  32.20  34.28  38.75  39.72
         39.73  45.87  54.80  54.80  58.59  59.24  60.92  73.18  73.19  78.33
         84.45  84.46  84.88 105.69
  96  1 -15.47 -14.95 -14.94 -14.59 -12.03 -11.64 -11.64 -11.02  -8.33  -7.92
         -7.91  -7.22  -6.97  -6.93  -6.92  -6.39  -3.32  -3.19  -2.86  -2.85
         -2.09  -2.08  -1.78  -1.71  -1.31  -0.94  -0.82  -0.82   1.44   1.45
          2.19   2.41   2.61   3.23   3.59   4.05   4.05   4.42   4.43   4.77
          5.24   7.04   7.05   7.17   7.18   7.82   8.13   8.64   8.93   8.94
          9.01   9.34   9.37  10.09  10.53  10.56  13.85  14.08  14.10  15.06
         15.07  15.14  15.48  15.65  15.79  16.00  16.43  16.44  17.60  18.35
         18.37  18.41  18.91  18.94  19.36  19.67  20.47  20.47  21.10  21.56
         26.84  26.96  26.99  28.39  28.63  32.19  32.21  34.23  38.75  39.71
         39.72  45.80  54.88  54.90  58.45  59.15  60.72  73.09  73.11  78.38
         84.40  84.43  84.96 105.13
  97  1 -15.47 -14.94 -14.94 -14.61 -12.03 -11.64 -11.64 -11.01  -8.32  -7.92
         -7.92  -7.22  -6.96  -6.93  -6.93  -6.39  -3.31  -3.18  -2.87  -2.87
         -2.08  -2.08  -1.76  -1.72  -1.30  -0.93  -0.82  -0.82   1.45   1.45
          2.21   2.42   2.59   3.24   3.59   4.05   4.05   4.42   4.42   4.76
          5.21   7.04   7.05   7.19   7.19   7.83   8.11   8.64   8.94   8.94
          8.97   9.35   9.37  10.11  10.56  10.56  13.86  14.11  14.11  15.07
         15.08  15.12  15.48  15.63  15.78  15.98  16.42  16.43  17.59  18.35
         18.36  18.41  18.94  18.94  19.37  19.66  20.46  20.46  21.11  21.54
         26.88  26.97  26.97  28.37  28.64  32.13  32.13  34.27  38.77  39.70
         39.70  45.91  54.69  54.71  58.64  59.18  60.78  73.09  73.09  78.27
         84.27  84.30  85.04 105.48
  98  1 -15.65 -15.04 -15.04 -14.54 -11.63 -11.01 -11.01 -10.22  -9.28  -8.80
         -8.80  -8.22  -7.08  -7.02  -7.02  -6.32  -3.30  -2.68  -2.43  -2.43
         -1.74  -1.74  -1.39  -1.17  -0.10  -0.10  -0.08   0.10   0.44   0.44
          0.72   1.24   1.73   2.15   2.46   2.72   2.72   4.26   4.26   5.35
          5.75   7.66   7.67   8.18   8.73   8.73   9.36   9.69   9.90  10.00
         10.01  10.69  11.08  11.73  11.73  12.04  12.71  12.90  12.90  12.90
         13.48  13.77  13.77  14.40  14.90  15.11  15.12  15.53  17.38  18.17
         18.17  19.21  19.80  19.94  19.94  20.42  21.50  21.50  21.77  22.32
         25.60  25.61  25.97  25.98  27.61  35.97  35.97  40.37  42.61  42.61
         48.88  52.03  52.04  53.10  58.07  59.65  60.72  68.62  68.65  78.62
         79.01  81.22  81.23  97.30
  99  1 -15.65 -15.04 -15.04 -14.53 -11.63 -11.02 -11.02 -10.22  -9.28  -8.80
         -8.80  -8.21  -7.08  -7.02  -7.02  -6.32  -3.30  -2.68  -2.43  -2.43
         -1.74  -1.74  -1.39  -1.16  -0.12  -0.12  -0.09   0.08   0.44   0.44
          0.71   1.24   1.75   2.16   2.46   2.74   2.74   4.26   4.26   5.36
          5.76   7.66   7.66   8.17   8.73   8.73   9.37   9.68   9.88  10.03
         10.03  10.69  11.10  11.72  11.72  12.02  12.73  12.85  12.85  12.89
         13.46  13.78  13.78  14.40  14.91  15.14  15.14  15.54  17.38  18.17
         18.17  19.22  19.81  19.94  19.94  20.43  21.51  21.51  21.77  22.30
         25.60  25.60  25.98  25.98  27.62  35.99  35.99  40.37  42.75  42.75
         48.91  51.92  51.96  53.15  58.11  59.65  60.65  68.78  68.79  78.57
         79.03  81.28  81.30  97.33
 100  1 -15.48 -14.94 -14.94 -14.60 -12.03 -11.65 -11.65 -11.02  -8.33  -7.91
         -7.91  -7.21  -6.97  -6.93  -6.93  -6.38  -3.30  -3.18  -2.86  -2.86
         -2.09  -2.09  -1.77  -1.71  -1.31  -0.94  -0.83  -0.82   1.42   1.42
          2.19   2.41   2.58   3.25   3.61   4.06   4.06   4.44   4.44   4.78
          5.23   7.06   7.06   7.19   7.20   7.83   8.11   8.65   8.93   8.95
          9.01   9.31   9.35  10.08  10.52  10.52  13.84  14.09  14.09  15.07
         15.07  15.13  15.47  15.62  15.79  16.00  16.45  16.45  17.61  18.36
         18.36  18.39  18.94  18.94  19.38  19.69  20.47  20.47  21.12  21.51
         26.87  26.98  26.99  28.40  28.64  32.20  32.20  34.28  38.75  39.72
         39.73  45.87  54.80  54.80  58.59  59.24  60.92  73.18  73.19  78.33
         84.45  84.46  84.88 105.69
 101  1 -15.17 -14.82 -14.82 -14.82 -12.11 -12.11 -12.11 -11.72  -7.17  -7.17
         -7.17  -6.76  -6.76  -6.76  -6.54  -6.54  -3.92  -3.46  -3.46  -3.46
         -2.02  -2.02  -2.02  -1.89  -1.89  -1.60  -1.60  -1.60   2.92   2.92
          2.92   3.39   4.15   4.15   4.29   4.29   4.29   5.28   5.47   5.47
          5.47   6.26   6.26   6.26   6.33   6.34   6.34   7.73   7.73   8.02
          8.02   8.02   8.73   8.73   8.73   8.83  15.85  15.95  15.95  15.96
         16.43  16.43  16.62  16.62  16.62  17.27  17.27  17.27  18.03  18.03
         18.03  18.98  18.98  18.98  19.40  19.40  19.40  19.97  19.97  21.06
         28.01  28.01  28.01  29.35  29.35  29.63  29.63  29.63  49.12  49.13
         49.13  53.78  62.94  62.94  62.99  67.06  67.09  67.09  78.55  78.55
         92.36  92.36  92.38  98.68
 102  1 -15.17 -14.83 -14.82 -14.82 -12.11 -12.11 -12.11 -11.72  -7.17  -7.17
         -7.16  -6.76  -6.76  -6.75  -6.54  -6.54  -3.94  -3.46  -3.46  -3.45
         -2.01  -2.01  -2.01  -1.91  -1.89  -1.61  -1.61  -1.60   2.94   2.94
          2.95   3.38   4.14   4.16   4.29   4.29   4.30   5.27   5.45   5.45
          5.46   6.24   6.24   6.25   6.32   6.33   6.33   7.73   7.75   8.02
          8.03   8.04   8.72   8.75   8.75   8.86  15.88  15.93  15.95  15.95
         16.41  16.43  16.63  16.64  16.64  17.24  17.25  17.26  17.98  18.02
         18.02  18.97  18.97  18.98  19.41  19.41  19.42  19.95  19.96  21.13
         27.96  27.96  28.01  29.28  29.35  29.66  29.66  29.67  49.12  49.13
         49.21  53.78  62.79  62.81  63.11  67.08  67.19  67.20  77.94  78.32
         92.13  92.22  92.24  98.47
 103  1 -15.47 -14.95 -14.94 -14.59 -12.03 -11.64 -11.64 -11.02  -8.33  -7.92
         -7.91  -7.22  -6.97  -6.93  -6.92  -6.39  -3.32  -3.19  -2.86  -2.85
         -2.09  -2.08  -1.78  -1.71  -1.31  -0.94  -0.82  -0.82   1.44   1.45
          2.19   2.41   2.61   3.23   3.59   4.05   4.05   4.42   4.43   4.77
          5.24   7.04   7.05   7.17   7.18   7.82   8.13   8.64   8.93   8.94
          9.01   9.34   9.37  10.09  10.53  10.56  13.85  14.08  14.10  15.06
         15.07  15.14  15.48  15.65  15.79  16.00  16.43  16.44  17.60  18.35
         18.37  18.41  18.91  18.94  19.36  19.67  20.47  20.47  21.10  21.56
         26.84  26.96  26.99  28.39  28.63  32.19  32.21  34.23  38.75  39.71
         39.72  45.80  54.88  54.90  58.45  59.15  60.72  73.09  73.11  78.38
         84.40  84.43  84.96 105.14
 104  1 -15.64 -15.05 -15.04 -14.53 -11.63 -11.01 -11.01 -10.22  -9.28  -8.80
         -8.80  -8.21  -7.09  -7.02  -7.01  -6.32  -3.30  -2.69  -2.42  -2.42
         -1.74  -1.73  -1.40  -1.17  -0.11  -0.10  -0.09   0.08   0.45   0.45
          0.70   1.23   1.73   2.15   2.49   2.74   2.75   4.23   4.24   5.38
          5.77   7.63   7.64   8.18   8.73   8.73   9.39   9.68   9.91  10.00
         10.02  10.69  11.09  11.71  11.72  12.03  12.73  12.87  12.89  12.89
         13.48  13.76  13.77  14.41  14.90  15.12  15.13  15.54  17.41  18.16
         18.17  19.19  19.82  19.93  19.94  20.40  21.51  21.52  21.75  22.32
         25.58  25.60  25.98  25.99  27.61  35.98  35.99  40.37  42.72  42.74
         48.70  52.11  52.16  53.12  57.91  59.52  60.75  68.68  68.69  78.60
         79.08  81.23  81.31  97.35
 105  1 -15.64 -15.05 -15.04 -14.53 -11.63 -11.01 -11.01 -10.22  -9.28  -8.80
         -8.80  -8.21  -7.09  -7.02  -7.01  -6.32  -3.30  -2.69  -2.42  -2.42
         -1.74  -1.73  -1.40  -1.17  -0.11  -0.10  -0.09   0.08   0.45   0.45
          0.70   1.23   1.73   2.15   2.49   2.74   2.75   4.23   4.24   5.38
          5.77   7.63   7.64   8.18   8.73   8.73   9.39   9.68   9.91  10.00
         10.02  10.69  11.09  11.71  11.72  12.03  12.73  12.87  12.89  12.89
         13.48  13.76  13.77  14.41  14.90  15.12  15.13  15.54  17.41  18.16
         18.17  19.19  19.82  19.93  19.94  20.40  21.51  21.52  21.75  22.32
         25.58  25.60  25.98  25.99  27.61  35.98  35.99  40.37  42.72  42.74
         48.70  52.11  52.16  53.12  57.91  59.52  60.75  68.68  68.69  78.60
         79.08  81.23  81.31  97.35
 106  1 -15.47 -14.95 -14.94 -14.59 -12.03 -11.64 -11.64 -11.02  -8.33  -7.92
         -7.91  -7.22  -6.97  -6.93  -6.92  -6.39  -3.32  -3.19  -2.86  -2.85
         -2.09  -2.08  -1.78  -1.71  -1.31  -0.94  -0.82  -0.82   1.44   1.45
          2.19   2.41   2.61   3.23   3.59   4.05   4.05   4.42   4.43   4.77
          5.24   7.04   7.05   7.17   7.18   7.82   8.13   8.64   8.93   8.94
          9.01   9.34   9.37  10.09  10.53  10.56  13.85  14.08  14.10  15.06
         15.07  15.14  15.48  15.65  15.79  16.00  16.43  16.44  17.60  18.35
         18.37  18.41  18.91  18.94  19.36  19.67  20.47  20.47  21.10  21.56
         26.84  26.96  26.99  28.39  28.63  32.19  32.21  34.23  38.75  39.71
         39.72  45.80  54.88  54.90  58.45  59.15  60.72  73.09  73.11  78.38
         84.40  84.43  84.96 105.14
 107  1 -15.17 -14.83 -14.82 -14.82 -12.11 -12.11 -12.11 -11.72  -7.17  -7.17
         -7.16  -6.76  -6.76  -6.75  -6.54  -6.54  -3.94  -3.46  -3.46  -3.45
         -2.01  -2.01  -2.01  -1.91  -1.89  -1.61  -1.61  -1.60   2.94   2.94
          2.95   3.38   4.14   4.16   4.29   4.29   4.30   5.27   5.45   5.45
          5.46   6.24   6.24   6.25   6.32   6.33   6.33   7.73   7.75   8.02
          8.03   8.04   8.72   8.75   8.75   8.86  15.88  15.93  15.95  15.95
         16.41  16.43  16.63  16.64  16.64  17.24  17.25  17.26  17.98  18.02
         18.02  18.97  18.97  18.98  19.41  19.41  19.42  19.95  19.96  21.13
         27.96  27.96  28.01  29.28  29.35  29.66  29.66  29.67  49.12  49.13
         49.21  53.78  62.79  62.81  63.11  67.08  67.19  67.20  77.94  78.32
         92.13  92.22  92.24  98.47
 108  1 -15.17 -14.83 -14.82 -14.82 -12.11 -12.11 -12.11 -11.72  -7.17  -7.17
         -7.16  -6.76  -6.76  -6.75  -6.54  -6.54  -3.94  -3.46  -3.46  -3.45
         -2.01  -2.01  -2.01  -1.91  -1.89  -1.61  -1.61  -1.60   2.94   2.94
          2.95   3.38   4.14   4.16   4.29   4.29   4.30   5.27   5.45   5.45
          5.46   6.24   6.24   6.25   6.32   6.33   6.33   7.73   7.75   8.02
          8.03   8.04   8.72   8.75   8.75   8.86  15.88  15.93  15.95  15.95
         16.41  16.43  16.63  16.64  16.64  17.24  17.25  17.26  17.98  18.02
         18.02  18.97  18.97  18.98  19.41  19.41  19.42  19.95  19.96  21.13
         27.96  27.96  28.01  29.28  29.35  29.66  29.66  29.67  49.12  49.13
         49.21  53.78  62.79  62.81  63.11  67.08  67.19  67.20  77.94  78.32
         92.13  92.22  92.24  98.47
siesta: Fermi energy =      -5.003237 eV

siesta: Program's energy decomposition (eV):
siesta: Ebs     =      -331.676958
siesta: Eions   =      1510.441798
siesta: Ena     =       471.311934
siesta: Ekin    =       319.302289
siesta: Enl     =       127.092271
siesta: DEna    =         6.603911
siesta: DUscf   =         1.519528
siesta: DUext   =         0.000000
siesta: Exc     =      -446.061200
siesta: eta*DQ  =         0.000000
siesta: Emadel  =         0.000000
siesta: Emeta   =         0.000000
siesta: Emolmec =         0.000000
siesta: Ekinion =         0.000000
siesta: Eharris =     -1030.674221
siesta: Etot    =     -1030.673065
siesta: FreeEng =     -1030.673065

siesta: Final energy (eV):
siesta:  Band Struct. =    -331.676958
siesta:       Kinetic =     319.302289
siesta:       Hartree =      59.895800
siesta:    Ext. field =       0.000000
siesta:   Exch.-corr. =    -446.061200
siesta:  Ion-electron =    -421.909409
siesta:       Ion-ion =    -541.900545
siesta:       Ekinion =       0.000000
siesta:         Total =   -1030.673065

siesta: Stress tensor (static) (eV/Ang**3):
siesta:     0.000053    0.000618    0.000619
siesta:     0.000618    0.000053    0.000619
siesta:     0.000619    0.000619    0.000053

siesta: Constrained stress tensor (static) (eV/Ang**3):
siesta:     0.000053    0.000618    0.000619
siesta:     0.000618    0.000053    0.000619
siesta:     0.000619    0.000619    0.000053

siesta: Cell volume =        168.092765 Ang**3

siesta: Pressure (static):
siesta:                Solid            Molecule  Units
siesta:          -0.00000058          0.00000145  Ry/Bohr**3
siesta:          -0.00005311          0.00013321  eV/Ang**3
siesta:          -0.08509630          0.21342599  kBar
(Free)E+ p_basis*V_orbitals  =       -1021.735334
(Free)Eharris+ p_basis*V_orbitals  =       -1021.736979

* Maximum dynamic memory allocated : Node    0 =    90 MB

* Maximum memory occured during init_pulay_arrrays            

timer: CPU execution times:
timer:  Routine       Calls   Time/call    Tot.time        %
timer:  siesta            1    1686.769    1686.769   100.00
timer:  Setup             1       0.128       0.128     0.01
timer:  bands             3       0.525       1.576     0.09
timer:  writewave         3       0.008       0.024     0.00
timer:  KSV_init          1       0.000       0.000     0.00
timer:  IterMD           18      93.606    1684.909    99.89
timer:  hsparse          18       0.169       3.037     0.18
timer:  overlap          18       0.126       2.268     0.13
timer:  IterSCF          90      15.540    1398.604    82.92
timer:  kinefsm          36       0.126       4.544     0.27
timer:  nlefsm           36       3.948     142.117     8.43
timer:  DHSCF           108       8.604     929.242    55.09
timer:  DHSCF1           18       0.048       0.872     0.05
timer:  DHSCF2           18       2.165      38.974     2.31
timer:  REORD           684       0.000       0.068     0.00
timer:  POISON          126       0.005       0.580     0.03
timer:  DHSCF3          108       7.590     819.699    48.60
timer:  rhoofd          108       3.423     369.659    21.92
timer:  cellXC          108       0.112      12.141     0.72
timer:  vmat            108       4.048     437.195    25.92
timer:  MolMec           36       0.000       0.000     0.00
timer:  diagon           90       6.634     597.025    35.39
timer:  c-eigval      10845       0.017     180.728    10.71
timer:  c-buildHS     10845       0.012     130.708     7.75
timer:  cdiag         21590       0.007     153.326     9.09
timer:  cdiag1        21590       0.001      11.882     0.70
timer:  cdiag2        21590       0.002      39.451     2.34
timer:  cdiag3        21590       0.005      98.279     5.83
timer:  cdiag4        21590       0.000       3.101     0.18
timer:  c-eigvec      10745       0.022     232.976    13.81
timer:  c-buildD      10744       0.017     183.854    10.90
timer:  DHSCF4           18       3.871      69.673     4.13
timer:  dfscf            18       3.648      65.672     3.89
timer:  overfsm          18       0.124       2.224     0.13
timer:  optical           1       0.000       0.000     0.00
  

elaps: ELAPSED times:
elaps:  Routine       Calls   Time/call    Tot.time        %
elaps:  siesta            1    1696.011    1696.011   100.00
elaps:  Setup             1       0.129       0.129     0.01
elaps:  bands             3       0.528       1.585     0.09
elaps:  writewave         3       0.007       0.020     0.00
elaps:  KSV_init          1       0.001       0.001     0.00
elaps:  IterMD           18      94.119    1694.141    99.89
elaps:  hsparse          18       0.170       3.066     0.18
elaps:  overlap          18       0.127       2.284     0.13
elaps:  IterSCF          90      15.626    1406.385    82.92
elaps:  kinefsm          36       0.127       4.564     0.27
elaps:  nlefsm           36       3.966     142.759     8.42
elaps:  DHSCF           108       8.647     933.850    55.06
elaps:  DHSCF1           18       0.049       0.882     0.05
elaps:  DHSCF2           18       2.175      39.156     2.31
elaps:  REORD           684       0.000       0.051     0.00
elaps:  POISON          126       0.005       0.586     0.03
elaps:  DHSCF3          108       7.627     823.711    48.57
elaps:  rhoofd          108       3.439     371.465    21.90
elaps:  cellXC          108       0.113      12.202     0.72
elaps:  vmat            108       4.068     439.384    25.91
elaps:  MolMec           36       0.000       0.001     0.00
elaps:  diagon           90       6.677     600.926    35.43
elaps:  c-eigval      10845       0.017     181.802    10.72
elaps:  c-buildHS     10845       0.012     131.769     7.77
elaps:  cdiag         21590       0.007     154.042     9.08
elaps:  cdiag1        21590       0.001      11.401     0.67
elaps:  cdiag2        21590       0.002      40.048     2.36
elaps:  cdiag3        21590       0.005      98.904     5.83
elaps:  cdiag4        21590       0.000       3.091     0.18
elaps:  c-eigvec      10745       0.022     234.750    13.84
elaps:  c-buildD      10744       0.017     185.012    10.91
elaps:  DHSCF4           18       3.893      70.066     4.13
elaps:  dfscf            18       3.670      66.053     3.89
elaps:  overfsm          18       0.125       2.250     0.13
elaps:  optical           1       0.000       0.000     0.00
  
>> End of run:   9-MAY-2013  18:49:39
