Siesta Version:                                        siesta-3.2
Architecture  : i686-apple-darwin10.8.0--unknown
Compiler flags: g95 -g -O2
SERIAL version

* Running in serial mode
>> Start of run:  14-MAY-2013  11:11:38

                           ***********************       
                           *  WELCOME TO SIESTA  *       
                           ***********************       

reinit: Reading from standard input
************************** Dump of input data file ****************************
# FDF for silicon
SystemName             silicon          # Descriptive name of the system
SystemLabel            si          # Short name for naming files
NumberOfAtoms 8
NumberOfSpecies 1
%block ChemicalSpeciesLabel
1 14 Si
%endblock ChemicalSpeciesLabel
LatticeConstant  5.05 Ang
##Basis set Definition##
PAO.BasisType          split        # Type of PAO basis set
PAO.EnergyShift        50 meV
PAO.BasisSize          DZP          # (DZP) Double-z + polarization
#%block LatticeVectors
#0.500 0.500 0.000
#0.500 0.000 0.500
#0.000 0.500 0.500
#%endblock LatticeVectors
AtomicCoordinatesFormat NotScaledCartesianAng
%block AtomicCoordinatesAndAtomicSpecies
	0.00000000	0.00000000	0.00000000  1 Si  1
	1.36000000	1.36000000	1.36000000  1 Si  2
	2.72000000	2.72000000	0.00000000  1 Si  3
	4.08000000	4.08000000	1.36000000  1 Si  4
	2.72000000	0.00000000	2.72000000  1 Si  5
	4.08000000	1.36000000	4.08000000  1 Si  6
	0.00000000	2.72000000	2.72000000  1 Si  7
	1.36000000	4.08000000	4.08000000  1 Si  8
%endblock AtomicCoordinatesAndAtomicSpecies
MeshCutoff 100.0 Ry # 100, 120, 180, 260
kgrid_cutoff 40.0 Bohr # 30, 35, 40, 45
DM.Mixingweight  0.3
DM.NumberPulay    3
DM.Tolerance      1.d-3
DM.UseSaveDM      true
ElectronicTemperature 25 meV
SolutionMethod    diagon
XC.functional     LDA	    # Local Density Approximation
XC.authors        CA           # Ceperley-Alder
SpinPolarized     false
MD.TypeOfRun           CG           # Type of dynamics:
MD.VariableCell        true
MD.NumCGsteps          100          # Number of CG steps for coordinate optimization
MD.MaxCGDispl          0.2 Bohr     # Maximum atomic displacement
                                    #   in one CG step (Bohr)
MD.MaxForceTol         0.04 eV/Ang  # Tolerance in the maximum
                                    #   atomic force (Ry/Bohr)
				
##Output Specification##
WriteMDhistory         true         # Trajectory information
WriteCoorStep          true
WriteCoorXmol          true
WriteMDXmol            true
WriteEigenvalues true
WriteKbands      true
WriteBands       true
WriteWaveFunctions true
WriteMullikenPoP   1
%block BandLines
1	1.000	1.000 1.000 L
25	0.000	0.000	0.000 \Gamma
30	2.000	0.000	0.000 X
10	2.000	0.500	0.500 U
35	0.000	0.000	0.000 \Gamma
%endblock BandLines
%block WaveFuncKPoints
0.0 0.0 0.0 from 1 to 50 # > 16 = 4/2*8 (Valenzelektronen/2, Atomzahl ...)
%endblock WaveFuncKpoints
************************** End of input data file *****************************

reinit: -----------------------------------------------------------------------
reinit: System Name: silicon
reinit: -----------------------------------------------------------------------
reinit: System Label: si                                                          
reinit: -----------------------------------------------------------------------

initatom: Reading input for the pseudopotentials and atomic orbitals ----------
 Species number:  1  Label: Si Atomic number: 14
Ground state valence configuration:   3s02  3p02
Reading pseudopotential information in formatted form from Si.psf

Valence configuration for pseudopotential generation:
3s( 2.00) rc: 1.75
3p( 2.00) rc: 1.94
3d( 0.00) rc: 2.09
4f( 0.00) rc: 2.09
For Si, standard SIESTA heuristics set lmxkb to 3
 (one more than the basis l, including polarization orbitals).
Use PS.lmax or PS.KBprojectors blocks to override.

<basis_specs>
===============================================================================
Si                   Z=  14    Mass=  28.090        Charge= 0.17977+309
Lmxo=1 Lmxkb= 3    BasisType=split      Semic=F
L=0  Nsemic=0  Cnfigmx=3
          n=1  nzeta=2  polorb=0
            splnorm:   0.15000    
               vcte:    0.0000    
               rinn:    0.0000    
                rcs:    0.0000      0.0000    
            lambdas:    1.0000      1.0000    
L=1  Nsemic=0  Cnfigmx=3
          n=1  nzeta=2  polorb=1
            splnorm:   0.15000    
               vcte:    0.0000    
               rinn:    0.0000    
                rcs:    0.0000      0.0000    
            lambdas:    1.0000      1.0000    
-------------------------------------------------------------------------------
L=0  Nkbl=1  erefs: 0.17977+309
L=1  Nkbl=1  erefs: 0.17977+309
L=2  Nkbl=1  erefs: 0.17977+309
L=3  Nkbl=1  erefs: 0.17977+309
===============================================================================
</basis_specs>

atom: Called for Si                    (Z =  14)

read_vps: Pseudopotential generation method:
read_vps: ATM3      Troullier-Martins                       
Total valence charge:    4.00000

xc_check: Exchange-correlation functional:
xc_check: Ceperley-Alder
V l=0 = -2*Zval/r beyond r=  2.5494
V l=1 = -2*Zval/r beyond r=  2.5494
V l=2 = -2*Zval/r beyond r=  2.5494
V l=3 = -2*Zval/r beyond r=  2.5494
All V_l potentials equal beyond r=  2.0613
This should be close to max(r_c) in ps generation
All pots = -2*Zval/r beyond r=  2.5494

VLOCAL1: 99.0% of the norm of Vloc inside     10.216 Ry
VLOCAL1: 99.9% of the norm of Vloc inside     23.282 Ry
atom: Maximum radius for 4*pi*r*r*local-pseudopot. charge    2.45560
atom: Maximum radius for r*vlocal+2*Zval:    2.14012
GHOST: No ghost state for L =  0
GHOST: No ghost state for L =  1
GHOST: No ghost state for L =  2
GHOST: No ghost state for L =  3

KBgen: Kleinman-Bylander projectors: 
   l= 0   rc=  2.782581   el= -0.796617   Ekb=  4.840502   kbcos=  0.288423
   l= 1   rc=  2.888916   el= -0.307040   Ekb=  1.512733   kbcos=  0.296968
   l= 2   rc=  2.962054   el=  0.002313   Ekb= -2.156507   kbcos= -0.061834
   l= 3   rc=  3.192765   el=  0.003402   Ekb= -0.600958   kbcos= -0.007408

KBgen: Total number of  Kleinman-Bylander projectors:   16
atom: -------------------------------------------------------------------------

atom: SANKEY-TYPE ORBITALS:
atom: Selected multiple-zeta basis: split     

SPLIT: Orbitals with angular momentum L= 0

SPLIT: Basis orbitals for state 3s

SPLIT: PAO cut-off radius determined from an
SPLIT: energy shift=  0.003675 Ry

   izeta = 1
                 lambda =    1.000000
                     rc =    6.116033
                 energy =   -0.793486
                kinetic =    0.528761
    potential(screened) =   -1.322246
       potential(ionic) =   -3.766038

   izeta = 2
                 rmatch =    4.530823
              splitnorm =    0.150000
                 energy =   -0.697320
                kinetic =    0.853435
    potential(screened) =   -1.550756
       potential(ionic) =   -4.120809

SPLIT: Orbitals with angular momentum L= 1

SPLIT: Basis orbitals for state 3p

SPLIT: PAO cut-off radius determined from an
SPLIT: energy shift=  0.003675 Ry

   izeta = 1
                 lambda =    1.000000
                     rc =    7.853192
                 energy =   -0.303674
                kinetic =    0.798475
    potential(screened) =   -1.102149
       potential(ionic) =   -3.307324

   izeta = 2
                 rmatch =    5.397360
              splitnorm =    0.150000
                 energy =   -0.229357
                kinetic =    1.170483
    potential(screened) =   -1.399841
       potential(ionic) =   -3.814095

POLgen: Perturbative polarization orbital with L=  2

POLgen: Polarization orbital for state 3p

   izeta = 1
                     rc =    7.853192
                 energy =    0.331669
                kinetic =    1.088595
    potential(screened) =   -0.756926
       potential(ionic) =   -2.714870
atom: Total number of Sankey-type orbitals: 13

atm_pop: Valence configuration (for local Pseudopot. screening):
 3s( 2.00)                                                            
 3p( 2.00)                                                            
Vna: chval, zval:    4.00000   4.00000

Vna:  Cut-off radius for the neutral-atom potential:   7.853192

atom: _________________________________________________________________________

prinput: Basis input ----------------------------------------------------------

PAO.BasisType split     

%block ChemicalSpeciesLabel
    1   14 Si                      # Species index, atomic number, species label
%endblock ChemicalSpeciesLabel

%block PAO.Basis                 # Define Basis set
Si                    2                    # Species label, number of l-shells
 n=3   0   2                         # n, l, Nzeta 
   6.116      4.531   
   1.000      1.000   
 n=3   1   2 P   1                   # n, l, Nzeta, Polarization, NzetaPol
   7.853      5.397   
   1.000      1.000   
%endblock PAO.Basis

prinput: ----------------------------------------------------------------------

coor:   Atomic-coordinates input format  =     Cartesian coordinates
coor:                                          (in Angstroms)

siesta: Atomic coordinates (Bohr) and species
siesta:      0.00000   0.00000   0.00000  1        1
siesta:      2.57003   2.57003   2.57003  1        2
siesta:      5.14006   5.14006   0.00000  1        3
siesta:      7.71009   7.71009   2.57003  1        4
siesta:      5.14006   0.00000   5.14006  1        5
siesta:      7.71009   2.57003   7.71009  1        6
siesta:      0.00000   5.14006   5.14006  1        7
siesta:      2.57003   7.71009   7.71009  1        8

siesta: System type = bulk      

initatomlists: Number of atoms, orbitals, and projectors:      8   104   128

siesta: ******************** Simulation parameters ****************************
siesta:
siesta: The following are some of the parameters of the simulation.
siesta: A complete list of the parameters used, including default values,
siesta: can be found in file out.fdf
siesta:
redata: Non-Collinear-spin run           =     F
redata: SpinPolarized (Up/Down) run      =     F
redata: Number of spin components        =     1
redata: Long output                      =     F
redata: Number of Atomic Species         =        1
redata: Charge density info will appear in .RHO file
redata: Write Mulliken Pop.              =     Atomic and Orbital charges
redata: Mesh Cutoff                      =   100.0000  Ry
redata: Net charge of the system         =     0.0000 |e|
redata: Max. number of SCF Iter          =       50
redata: Performing Pulay mixing using    =     3 iterations
redata: Mix DM in first SCF step ?       =     F
redata: Write Pulay info on disk?        =     F
redata: Discard 1st Pulay DM after  kick =     F
redata: New DM Mixing Weight             =     0.3000
redata: New DM Occupancy tolerance       = 0.000000000001
redata: No kicks to SCF
redata: DM Mixing Weight for Kicks       =     0.5000
redata: DM Tolerance for SCF             =     0.001000
redata: Require Energy convergence for SCF =     F
redata: DM Energy tolerance for SCF      =     0.000100 eV
redata: Require Harris convergence for SCF =     F
redata: DM Harris energy tolerance for SCF =     0.000100 eV
redata: Using Saved Data (generic)   =     F
redata: Use continuation files for DM    =     T
redata: Neglect nonoverlap interactions  =     F
redata: Method of Calculation            =     Diagonalization
redata: Divide and Conquer               =     T
redata: Electronic Temperature           =     0.0018  Ry
redata: Fix the spin of the system       =     F
redata: Dynamics option                  =     CG coord. optimization
redata: Variable cell                    =     T
redata: Use continuation files for CG    =     F
redata: Max atomic displ per move        =     0.2000  Bohr
redata: Maximum number of CG moves       =      100
redata: Force tolerance                  =     0.0016  Ry/Bohr
redata: Stress tolerance                 =     1.0000  GPa
redata: ***********************************************************************
Total number of electrons:    32.000000
Total ionic charge:    32.000000
 Kpoints in:  405 . Kpoints trimmed:  365

siesta: k-grid: Number of k-points =   365
siesta: k-grid: Cutoff (effective) =    22.725 Ang
siesta: k-grid: Supercell and displacements
siesta: k-grid:    0   9   0      0.000
siesta: k-grid:    0   0   9      0.000
siesta: k-grid:    9   0   0      0.000
Naive supercell factors:     5    5    5

superc: Internal auxiliary supercell:     5 x     5 x     5  =     125
superc: Number of atoms, orbitals, and projectors:   1000  13000  16000

* Maximum dynamic memory allocated =     2 MB

siesta:                 ==============================
                            Begin CG move =      0
                        ==============================

outcoor: Atomic coordinates (Ang):                          
    0.00000000    0.00000000    0.00000000   1       1  Si
    1.36000000    1.36000000    1.36000000   1       2  Si
    2.72000000    2.72000000    0.00000000   1       3  Si
    4.08000000    4.08000000    1.36000000   1       4  Si
    2.72000000    0.00000000    2.72000000   1       5  Si
    4.08000000    1.36000000    4.08000000   1       6  Si
    0.00000000    2.72000000    2.72000000   1       7  Si
    1.36000000    4.08000000    4.08000000   1       8  Si

superc: Internal auxiliary supercell:     5 x     5 x     5  =     125
superc: Number of atoms, orbitals, and projectors:   1000  13000  16000

outcell: Unit cell vectors (Ang):
        5.050000    0.000000    0.000000
        0.000000    5.050000    0.000000
        0.000000    0.000000    5.050000

outcell: Cell vector modules (Ang)   :    5.050000    5.050000    5.050000
outcell: Cell angles (23,13,12) (deg):     90.0000     90.0000     90.0000
outcell: Cell volume (Ang**3)        :    128.7876
New_DM. Step:     1
Initializing Density Matrix...

InitMesh: MESH =    32 x    32 x    32 =       32768
InitMesh: Mesh cutoff (required, used) =   100.000   110.973 Ry

* Maximum dynamic memory allocated =    83 MB

stepf: Fermi-Dirac step function

siesta: Program's energy decomposition (eV):
siesta: Ebs     =      -392.865688
siesta: Eions   =      1510.441798
siesta: Ena     =       449.532726
siesta: Ekin    =       288.938730
siesta: Enl     =       148.596931
siesta: DEna    =         0.000001
siesta: DUscf   =         0.000000
siesta: DUext   =         0.000000
siesta: Exc     =      -267.579655
siesta: eta*DQ  =         0.000000
siesta: Emadel  =         0.000000
siesta: Emeta   =         0.000000
siesta: Emolmec =         0.000000
siesta: Ekinion =         0.000000
siesta: Eharris =      -856.007155
siesta: Etot    =      -890.953066
siesta: FreeEng =      -890.953066

siesta: iscf   Eharris(eV)      E_KS(eV)   FreeEng(eV)   dDmax  Ef(eV)
siesta:    1     -856.0072     -890.9531     -890.9531  1.6661 -6.1947
timer: Routine,Calls,Time,% = IterSCF        1      48.915  98.18
elaps: Routine,Calls,Wall,% = IterSCF        1      48.918  98.17
siesta:    2     -855.5091     -854.9060     -854.9079  0.2422 -5.8060
siesta:    3     -855.2315     -858.9256     -858.9273  0.1810 -5.9112
siesta:    4     -855.2266     -855.6570     -855.6588  0.0271 -5.9135
siesta:    5     -855.2254     -855.1747     -855.1765  0.0058 -5.9159
siesta:    6     -855.2254     -855.2612     -855.2628  0.0040 -5.9180
siesta:    7     -855.2254     -855.2624     -855.2641  0.0031 -5.9183
siesta:    8     -855.2253     -855.2467     -855.2484  0.0015 -5.9183
siesta:    9     -855.2253     -855.2348     -855.2365  0.0006 -5.9182

siesta: E_KS(eV) =             -855.2259

siesta: E_KS - E_eggbox =      -855.2259

siesta: Atomic forces (eV/Ang):
----------------------------------------
   Tot    0.001315    0.001314    0.001303
----------------------------------------
   Max    4.566690
   Res    3.053091    sqrt( Sum f_i^2 / 3N )
----------------------------------------
   Max    4.566690    constrained

Stress-tensor-Voigt (kbar):     -382.56     -382.56     -382.56      125.33      125.33      125.33
(Free)E + p*V (eV/cell)     -824.4769
Target enthalpy (eV/cell)     -855.2276

siesta: Stress tensor (static) (eV/Ang**3):
        -0.238771    0.078226    0.078226
         0.078226   -0.238771    0.078226
         0.078226    0.078226   -0.238771

siesta: Pressure (static):        382.55717850  kBar

siesta: Stress tensor (total) (eV/Ang**3):
        -0.238771    0.078226    0.078226
         0.078226   -0.238771    0.078226
         0.078226    0.078226   -0.238771

siesta: Pressure (total):        382.55717850  kBar

mulliken: Mulliken Atomic and Orbital Populations:

Species: Si                  
Atom  Qatom  Qorb
               3s      3s      3py     3pz     3px     3py     3pz     3px     
               3Pdxy   3Pdyz   3Pdz2   3Pdxz   3Pdx2-y2
   1  4.309   0.221   0.832   0.077   0.077   0.077   0.708   0.708   0.708
              0.191   0.191   0.165   0.191   0.165
   2  3.837   0.650   0.586   0.064   0.064   0.064   0.608   0.608   0.608
              0.139   0.139   0.083   0.139   0.083
   3  3.904   0.522   0.643  -0.000   0.106  -0.000   0.676   0.618   0.676
              0.163   0.148   0.089   0.148   0.115
   4  4.047   0.384   0.719   0.065  -0.050   0.065   0.682   0.744   0.682
              0.163   0.169   0.150   0.169   0.107
   5  3.904   0.522   0.643   0.106  -0.000  -0.000   0.618   0.676   0.676
              0.148   0.148   0.109   0.163   0.095
   6  4.047   0.384   0.719  -0.050   0.065   0.065   0.744   0.682   0.682
              0.169   0.169   0.118   0.163   0.139
   7  3.904   0.522   0.643  -0.000  -0.000   0.106   0.676   0.676   0.618
              0.148   0.163   0.109   0.148   0.095
   8  4.047   0.384   0.719   0.065   0.065  -0.050   0.682   0.682   0.744
              0.169   0.163   0.118   0.169   0.139

mulliken: Qtot =       32.000

cgvc: No target stress found, assuming hydrostatic MD.TargetPressure.

cgvc: Target stress (kBar)
cgvc:        -0.000       0.000       0.000
cgvc:         0.000      -0.000       0.000
cgvc:         0.000       0.000      -0.000

* Maximum dynamic memory allocated =    85 MB

siesta:                 ==============================
                            Begin CG move =      1
                        ==============================

outcoor: Atomic coordinates (Ang):                          
    0.01819611    0.01819610    0.01819606   1       1  Si
    1.36640535    1.36640536    1.36640535   1       2  Si
    2.72932284    2.72932282    0.00545867   1       3  Si
    4.06998005    4.06998006    1.37052910   1       4  Si
    2.72932279    0.00545862    2.72932278   1       5  Si
    4.06998012    1.37052905    4.06998005   1       6  Si
    0.00545863    2.72932279    2.72932278   1       7  Si
    1.37052903    4.06998012    4.06998008   1       8  Si
 Kpoints in:  405 . Kpoints trimmed:  365

siesta: k-grid: Number of k-points =   365
siesta: k-grid: Cutoff (effective) =    22.883 Ang
siesta: k-grid: Supercell and displacements
siesta: k-grid:    0   0   9      0.000
siesta: k-grid:    0   9   0      0.000
siesta: k-grid:    9   0   0      0.000
Naive supercell factors:     5    5    5

superc: Internal auxiliary supercell:     5 x     5 x     5  =     125
superc: Number of atoms, orbitals, and projectors:   1000  13000  16000

outcell: Unit cell vectors (Ang):
        5.085172   -0.011523   -0.011523
       -0.011523    5.085172   -0.011523
       -0.011523   -0.011523    5.085172

outcell: Cell vector modules (Ang)   :    5.085198    5.085198    5.085198
outcell: Cell angles (23,13,12) (deg):     90.2594     90.2594     90.2594
outcell: Cell volume (Ang**3)        :    131.4953
New_DM. Step:     2
Re-using DM from previous geometry...
Re-using DM without extrapolation (not allowed)
Density Matrix sparsity pattern changed.

InitMesh: MESH =    32 x    32 x    32 =       32768
InitMesh: Mesh cutoff (required, used) =   100.000   109.447 Ry

siesta: iscf   Eharris(eV)      E_KS(eV)   FreeEng(eV)   dDmax  Ef(eV)
siesta:    1     -857.0648     -855.7211     -855.7228  0.0774 -5.8934
siesta:    2     -857.0836     -857.0436     -857.0454  0.0256 -5.8489
siesta:    3     -857.0572     -857.0145     -857.0163  0.0021 -5.8726
siesta:    4     -857.0569     -857.0375     -857.0393  0.0009 -5.8754

siesta: E_KS(eV) =             -857.0574

siesta: Atomic forces (eV/Ang):
----------------------------------------
   Tot    0.007354    0.007350    0.007339
----------------------------------------
   Max    3.453474
   Res    2.360122    sqrt( Sum f_i^2 / 3N )
----------------------------------------
   Max    3.453474    constrained

Stress-tensor-Voigt (kbar):     -321.11     -321.11     -321.11       89.89       89.89       89.89
(Free)E + p*V (eV/cell)     -830.7048
Target enthalpy (eV/cell)     -857.0592

siesta: Stress tensor (static) (eV/Ang**3):
        -0.200421    0.056103    0.056103
         0.056103   -0.200421    0.056103
         0.056103    0.056103   -0.200421

siesta: Pressure (static):        321.11282758  kBar

siesta: Stress tensor (total) (eV/Ang**3):
        -0.200421    0.056103    0.056103
         0.056103   -0.200421    0.056103
         0.056103    0.056103   -0.200421

siesta: Pressure (total):        321.11282758  kBar

mulliken: Mulliken Atomic and Orbital Populations:

Species: Si                  
Atom  Qatom  Qorb
               3s      3s      3py     3pz     3px     3py     3pz     3px     
               3Pdxy   3Pdyz   3Pdz2   3Pdxz   3Pdx2-y2
   1  4.201   0.277   0.787   0.053   0.053   0.053   0.713   0.713   0.713
              0.182   0.182   0.146   0.182   0.146
   2  3.872   0.651   0.582   0.087   0.087   0.087   0.602   0.602   0.602
              0.137   0.137   0.082   0.137   0.082
   3  3.933   0.526   0.638   0.029   0.118   0.029   0.664   0.614   0.664
              0.159   0.147   0.089   0.147   0.111
   4  4.043   0.406   0.703   0.081  -0.042   0.081   0.669   0.740   0.669
              0.160   0.167   0.140   0.167   0.103
   5  3.933   0.526   0.638   0.118   0.029   0.029   0.614   0.664   0.664
              0.147   0.147   0.105   0.159   0.094
   6  4.043   0.406   0.703  -0.042   0.081   0.081   0.740   0.669   0.669
              0.167   0.167   0.112   0.160   0.131
   7  3.933   0.526   0.638   0.029   0.029   0.118   0.664   0.664   0.614
              0.147   0.159   0.105   0.147   0.094
   8  4.043   0.406   0.703   0.081   0.081  -0.042   0.669   0.669   0.740
              0.167   0.160   0.112   0.167   0.131

mulliken: Qtot =       32.000

* Maximum dynamic memory allocated =    97 MB

siesta:                 ==============================
                            Begin CG move =      2
                        ==============================

outcoor: Atomic coordinates (Ang):                          
    0.04749122    0.04749119    0.04749108   1       1  Si
    1.37668520    1.37668522    1.37668521   1       2  Si
    2.74400562    2.74400559    0.01477008   1       3  Si
    4.05326002    4.05326005    1.38842932   1       4  Si
    2.74400551    0.01476996    2.74400547   1       5  Si
    4.05326020    1.38842918    4.05326002   1       6  Si
    0.01476998    2.74400550    2.74400548   1       7  Si
    1.38842913    4.05326020    4.05326009   1       8  Si
 Kpoints in:  405 . Kpoints trimmed:  365

siesta: k-grid: Number of k-points =   365
siesta: k-grid: Cutoff (effective) =    23.137 Ang
siesta: k-grid: Supercell and displacements
siesta: k-grid:    0   0   9      0.000
siesta: k-grid:    0   9   0      0.000
siesta: k-grid:    9   0   0      0.000
Naive supercell factors:     5    5    5

superc: Internal auxiliary supercell:     5 x     5 x     5  =     125
superc: Number of atoms, orbitals, and projectors:   1000  13000  16000

outcell: Unit cell vectors (Ang):
        5.141447   -0.029960   -0.029960
       -0.029960    5.141447   -0.029960
       -0.029960   -0.029960    5.141447

outcell: Cell vector modules (Ang)   :    5.141622    5.141622    5.141622
outcell: Cell angles (23,13,12) (deg):     90.6658     90.6658     90.6658
outcell: Cell volume (Ang**3)        :    135.8976
New_DM. Step:     3
Re-using DM from previous geometry...
Re-using DM without extrapolation (not allowed)
Density Matrix sparsity pattern changed.

InitMesh: MESH =    32 x    32 x    32 =       32768
InitMesh: Mesh cutoff (required, used) =   100.000   107.083 Ry

siesta: iscf   Eharris(eV)      E_KS(eV)   FreeEng(eV)   dDmax  Ef(eV)
siesta:    1     -859.2100     -857.2359     -857.2377  0.0950 -5.8345
siesta:    2     -859.3032     -859.1127     -859.1138  0.0575 -5.7591
siesta:    3     -859.1772     -859.0055     -859.0067  0.0103 -5.8000
siesta:    4     -859.1762     -859.1402     -859.1414  0.0015 -5.8045
siesta:    5     -859.1763     -859.1555     -859.1567  0.0009 -5.8049

siesta: E_KS(eV) =             -859.1721

siesta: Atomic forces (eV/Ang):
----------------------------------------
   Tot   -0.004599   -0.004595   -0.004586
----------------------------------------
   Max    2.473260
   Res    1.500542    sqrt( Sum f_i^2 / 3N )
----------------------------------------
   Max    2.473260    constrained

Stress-tensor-Voigt (kbar):     -239.13     -239.13     -239.13       42.97       42.97       42.97
(Free)E + p*V (eV/cell)     -838.8907
Target enthalpy (eV/cell)     -859.1733

siesta: Stress tensor (static) (eV/Ang**3):
        -0.149250    0.026820    0.026820
         0.026820   -0.149250    0.026820
         0.026820    0.026820   -0.149250

siesta: Pressure (static):        239.12682440  kBar

siesta: Stress tensor (total) (eV/Ang**3):
        -0.149250    0.026820    0.026820
         0.026820   -0.149250    0.026820
         0.026820    0.026820   -0.149250

siesta: Pressure (total):        239.12682440  kBar

mulliken: Mulliken Atomic and Orbital Populations:

Species: Si                  
Atom  Qatom  Qorb
               3s      3s      3py     3pz     3px     3py     3pz     3px     
               3Pdxy   3Pdyz   3Pdz2   3Pdxz   3Pdx2-y2
   1  4.080   0.383   0.714   0.050   0.050   0.050   0.697   0.697   0.697
              0.167   0.167   0.121   0.167   0.121
   2  3.914   0.650   0.574   0.112   0.112   0.112   0.596   0.596   0.596
              0.134   0.134   0.081   0.134   0.081
   3  3.970   0.540   0.625   0.068   0.121   0.068   0.647   0.617   0.647
              0.153   0.146   0.089   0.146   0.103
   4  4.032   0.449   0.676   0.099  -0.019   0.099   0.653   0.723   0.653
              0.154   0.162   0.125   0.162   0.097
   5  3.970   0.540   0.625   0.121   0.068   0.068   0.617   0.647   0.647
              0.146   0.146   0.100   0.153   0.093
   6  4.032   0.449   0.676  -0.019   0.099   0.099   0.723   0.653   0.653
              0.162   0.162   0.104   0.154   0.118
   7  3.970   0.540   0.625   0.068   0.068   0.121   0.647   0.647   0.617
              0.146   0.153   0.100   0.146   0.093
   8  4.032   0.449   0.676   0.099   0.099  -0.019   0.653   0.653   0.723
              0.162   0.154   0.104   0.162   0.118

mulliken: Qtot =       32.000

* Maximum dynamic memory allocated =    97 MB

siesta:                 ==============================
                            Begin CG move =      3
                        ==============================

outcoor: Atomic coordinates (Ang):                          
    0.09482758    0.09482753    0.09482730   1       1  Si
    1.39321306    1.39321309    1.39321307   1       2  Si
    2.76689967    2.76689960    0.03114685   1       3  Si
    4.02474640    4.02474648    1.41976702   1       4  Si
    2.76689944    0.03114661    2.76689936   1       5  Si
    4.02474677    1.41976674    4.02474640   1       6  Si
    0.03114665    2.76689942    2.76689938   1       7  Si
    1.41976663    4.02474677    4.02474654   1       8  Si
 Kpoints in:  405 . Kpoints trimmed:  365

siesta: k-grid: Number of k-points =   365
siesta: k-grid: Cutoff (effective) =    23.545 Ang
siesta: k-grid: Supercell and displacements
siesta: k-grid:    0   0   9      0.000
siesta: k-grid:    0   9   0      0.000
siesta: k-grid:    9   0   0      0.000
Naive supercell factors:     5    5    5

superc: Internal auxiliary supercell:     5 x     5 x     5  =     125
superc: Number of atoms, orbitals, and projectors:   1000  13000  16000

outcell: Unit cell vectors (Ang):
        5.231488   -0.059459   -0.059459
       -0.059459    5.231488   -0.059459
       -0.059459   -0.059459    5.231488

outcell: Cell vector modules (Ang)   :    5.232164    5.232164    5.232164
outcell: Cell angles (23,13,12) (deg):     91.2948     91.2948     91.2948
outcell: Cell volume (Ang**3)        :    143.1219
New_DM. Step:     4
Re-using DM from previous geometry...
Re-using DM without extrapolation (not allowed)
Density Matrix sparsity pattern changed.

InitMesh: MESH =    32 x    32 x    32 =       32768
InitMesh: Mesh cutoff (required, used) =   100.000   103.489 Ry

siesta: iscf   Eharris(eV)      E_KS(eV)   FreeEng(eV)   dDmax  Ef(eV)
siesta:    1     -861.0277     -858.3544     -858.3556  0.0842 -5.6952
siesta:    2     -861.4716     -860.5676     -860.5683  0.1106 -5.6627
siesta:    3     -860.8752     -860.2772     -860.2776  0.0300 -5.6659
siesta:    4     -860.8724     -860.7658     -860.7663  0.0031 -5.6691
siesta:    5     -860.8724     -860.7995     -860.8000  0.0019 -5.6685
siesta:    6     -860.8724     -860.8563     -860.8568  0.0005 -5.6676

siesta: E_KS(eV) =             -860.8659

siesta: Atomic forces (eV/Ang):
----------------------------------------
   Tot   -0.002991   -0.002990   -0.002949
----------------------------------------
   Max    1.550695
   Res    0.769860    sqrt( Sum f_i^2 / 3N )
----------------------------------------
   Max    1.550695    constrained

Stress-tensor-Voigt (kbar):     -145.06     -145.06     -145.06      -12.60      -12.60      -12.60
(Free)E + p*V (eV/cell)     -847.9082
Target enthalpy (eV/cell)     -860.8664

siesta: Stress tensor (static) (eV/Ang**3):
        -0.090540   -0.007863   -0.007862
        -0.007863   -0.090540   -0.007862
        -0.007862   -0.007862   -0.090540

siesta: Pressure (static):        145.06285844  kBar

siesta: Stress tensor (total) (eV/Ang**3):
        -0.090540   -0.007863   -0.007862
        -0.007863   -0.090540   -0.007862
        -0.007862   -0.007862   -0.090540

siesta: Pressure (total):        145.06285844  kBar

mulliken: Mulliken Atomic and Orbital Populations:

Species: Si                  
Atom  Qatom  Qorb
               3s      3s      3py     3pz     3px     3py     3pz     3px     
               3Pdxy   3Pdyz   3Pdz2   3Pdxz   3Pdx2-y2
   1  3.993   0.540   0.625   0.112   0.112   0.112   0.625   0.625   0.625
              0.144   0.144   0.093   0.144   0.093
   2  3.969   0.639   0.575   0.151   0.151   0.151   0.581   0.581   0.581
              0.133   0.133   0.080   0.133   0.080
   3  4.001   0.545   0.620   0.124   0.117   0.124   0.616   0.623   0.616
              0.144   0.144   0.092   0.144   0.092
   4  4.012   0.510   0.640   0.133   0.055   0.133   0.618   0.666   0.618
              0.145   0.150   0.104   0.150   0.090
   5  4.001   0.545   0.620   0.117   0.124   0.124   0.623   0.616   0.616
              0.144   0.144   0.092   0.144   0.092
   6  4.012   0.510   0.640   0.055   0.133   0.133   0.666   0.618   0.618
              0.150   0.150   0.093   0.145   0.100
   7  4.001   0.545   0.620   0.124   0.124   0.117   0.616   0.616   0.623
              0.144   0.144   0.092   0.144   0.092
   8  4.012   0.510   0.640   0.133   0.133   0.055   0.618   0.618   0.666
              0.150   0.145   0.093   0.150   0.100

mulliken: Qtot =       32.000

* Maximum dynamic memory allocated =    98 MB

siesta:                 ==============================
                            Begin CG move =      4
                        ==============================

outcoor: Atomic coordinates (Ang):                          
    0.15176580    0.15176573    0.15176535   1       1  Si
    1.41296248    1.41296253    1.41296250   1       2  Si
    2.79312269    2.79312258    0.05295141   1       3  Si
    3.98808101    3.98808113    1.46128037   1       4  Si
    2.79312234    0.05295102    2.79312221   1       5  Si
    3.98808161    1.46127990    3.98808101   1       6  Si
    0.05295107    2.79312229    2.79312222   1       7  Si
    1.46127973    3.98808161    3.98808123   1       8  Si
 Kpoints in:  256 . Kpoints trimmed:  256

siesta: k-grid: Number of k-points =   256
siesta: k-grid: Cutoff (effective) =    21.360 Ang
siesta: k-grid: Supercell and displacements
siesta: k-grid:    0   0   8      0.500
siesta: k-grid:    0   8   0      0.500
siesta: k-grid:    8   0   0      0.500
Naive supercell factors:     5    5    5

superc: Internal auxiliary supercell:     5 x     5 x     5  =     125
superc: Number of atoms, orbitals, and projectors:   1000  13000  16000

outcell: Unit cell vectors (Ang):
        5.338382   -0.094479   -0.094479
       -0.094479    5.338382   -0.094479
       -0.094479   -0.094479    5.338382

outcell: Cell vector modules (Ang)   :    5.340053    5.340053    5.340053
outcell: Cell angles (23,13,12) (deg):     92.0093     92.0093     92.0093
outcell: Cell volume (Ang**3)        :    151.9903
New_DM. Step:     5
Re-using DM from previous geometry...
Re-using DM without extrapolation (not allowed)
Density Matrix sparsity pattern changed.

InitMesh: MESH =    36 x    36 x    36 =       46656
InitMesh: Mesh cutoff (required, used) =   100.000   125.928 Ry

siesta: iscf   Eharris(eV)      E_KS(eV)   FreeEng(eV)   dDmax  Ef(eV)
siesta:    1     -861.2045     -858.9074     -858.9080  0.0739 -5.6396
siesta:    2     -862.2709     -860.1590     -860.1595  0.1182 -5.6120
siesta:    3     -860.8554     -860.0268     -860.0280  0.0380 -5.6559
siesta:    4     -860.8544     -860.6322     -860.6329  0.0046 -5.6615
siesta:    5     -860.8542     -860.7225     -860.7232  0.0025 -5.6608
siesta:    6     -860.8541     -860.8074     -860.8081  0.0007 -5.6594

siesta: E_KS(eV) =             -860.8270

siesta: Atomic forces (eV/Ang):
----------------------------------------
   Tot   -0.007091   -0.007085   -0.007077
----------------------------------------
   Max    1.694238
   Res    1.190800    sqrt( Sum f_i^2 / 3N )
----------------------------------------
   Max    1.694238    constrained

Stress-tensor-Voigt (kbar):      -78.36      -78.36      -78.36      -58.34      -58.34      -58.34
(Free)E + p*V (eV/cell)     -853.3940
Target enthalpy (eV/cell)     -860.8276

siesta: Stress tensor (static) (eV/Ang**3):
        -0.048908   -0.036415   -0.036415
        -0.036415   -0.048908   -0.036415
        -0.036415   -0.036415   -0.048909

siesta: Pressure (static):         78.36080528  kBar

siesta: Stress tensor (total) (eV/Ang**3):
        -0.048908   -0.036415   -0.036415
        -0.036415   -0.048908   -0.036415
        -0.036415   -0.036415   -0.048909

siesta: Pressure (total):         78.36080528  kBar

mulliken: Mulliken Atomic and Orbital Populations:

Species: Si                  
Atom  Qatom  Qorb
               3s      3s      3py     3pz     3px     3py     3pz     3px     
               3Pdxy   3Pdyz   3Pdz2   3Pdxz   3Pdx2-y2
   1  4.006   0.703   0.545   0.234   0.234   0.234   0.517   0.517   0.517
              0.120   0.120   0.072   0.120   0.072
   2  3.999   0.603   0.593   0.173   0.173   0.173   0.573   0.573   0.573
              0.134   0.134   0.082   0.134   0.082
   3  4.001   0.537   0.625   0.180   0.082   0.180   0.578   0.640   0.578
              0.136   0.142   0.100   0.142   0.081
   4  3.997   0.575   0.606   0.170   0.147   0.170   0.580   0.594   0.580
              0.134   0.135   0.089   0.135   0.084
   5  4.001   0.537   0.625   0.082   0.180   0.180   0.640   0.578   0.578
              0.142   0.142   0.086   0.136   0.095
   6  3.997   0.575   0.606   0.147   0.170   0.170   0.594   0.580   0.580
              0.135   0.135   0.085   0.134   0.087
   7  4.001   0.537   0.625   0.180   0.180   0.082   0.578   0.578   0.640
              0.142   0.136   0.086   0.142   0.095
   8  3.997   0.575   0.606   0.170   0.170   0.147   0.580   0.580   0.594
              0.135   0.134   0.085   0.135   0.087

mulliken: Qtot =       32.000

* Maximum dynamic memory allocated =    98 MB

siesta:                 ==============================
                            Begin CG move =      5
                        ==============================

outcoor: Atomic coordinates (Ang):                          
    0.12731226    0.12731220    0.12731189   1       1  Si
    1.40449778    1.40449782    1.40449779   1       2  Si
    2.78203299    2.78203289    0.04331075   1       3  Si
    4.00413840    4.00413850    1.44295063   1       4  Si
    2.78203269    0.04331042    2.78203258   1       5  Si
    4.00413890    1.44295024    4.00413839   1       6  Si
    0.04331047    2.78203265    2.78203260   1       7  Si
    1.44295010    4.00413890    4.00413858   1       8  Si
 Kpoints in:  256 . Kpoints trimmed:  256

siesta: k-grid: Number of k-points =   256
siesta: k-grid: Cutoff (effective) =    21.175 Ang
siesta: k-grid: Supercell and displacements
siesta: k-grid:    0   0   8      0.500
siesta: k-grid:    0   8   0      0.500
siesta: k-grid:    8   0   0      0.500
Naive supercell factors:     5    5    5

superc: Internal auxiliary supercell:     5 x     5 x     5  =     125
superc: Number of atoms, orbitals, and projectors:   1000  13000  16000

outcell: Unit cell vectors (Ang):
        5.292658   -0.079499   -0.079499
       -0.079499    5.292658   -0.079499
       -0.079499   -0.079499    5.292658

outcell: Cell vector modules (Ang)   :    5.293852    5.293852    5.293852
outcell: Cell angles (23,13,12) (deg):     91.7078     91.7078     91.7078
outcell: Cell volume (Ang**3)        :    148.1578
New_DM. Step:     6
Re-using DM from previous geometry...
Re-using DM without extrapolation (not allowed)
Density Matrix sparsity pattern changed.

InitMesh: MESH =    32 x    32 x    32 =       32768
InitMesh: Mesh cutoff (required, used) =   100.000   101.170 Ry

siesta: iscf   Eharris(eV)      E_KS(eV)   FreeEng(eV)   dDmax  Ef(eV)
siesta:    1     -861.1491     -861.6428     -861.6434  0.0279 -5.7366
siesta:    2     -861.3176     -860.9730     -860.9731  0.0623 -5.7257
siesta:    3     -861.0894     -861.1994     -861.1995  0.0138 -5.7260
siesta:    4     -861.0890     -861.0596     -861.0597  0.0021 -5.7241
siesta:    5     -861.0890     -861.0668     -861.0669  0.0015 -5.7242
siesta:    6     -861.0890     -861.0829     -861.0830  0.0002 -5.7245

siesta: E_KS(eV) =             -861.0859

siesta: Atomic forces (eV/Ang):
----------------------------------------
   Tot    0.002510    0.002510    0.002502
----------------------------------------
   Max    1.033458
   Res    0.893911    sqrt( Sum f_i^2 / 3N )
----------------------------------------
   Max    1.033458    constrained

Stress-tensor-Voigt (kbar):     -102.01     -102.01     -102.01      -40.88      -40.88      -40.88
(Free)E + p*V (eV/cell)     -851.6533
Target enthalpy (eV/cell)     -861.0860

siesta: Stress tensor (static) (eV/Ang**3):
        -0.063666   -0.025512   -0.025512
        -0.025512   -0.063666   -0.025512
        -0.025512   -0.025512   -0.063666

siesta: Pressure (static):        102.00566737  kBar

siesta: Stress tensor (total) (eV/Ang**3):
        -0.063666   -0.025512   -0.025512
        -0.025512   -0.063666   -0.025512
        -0.025512   -0.025512   -0.063666

siesta: Pressure (total):        102.00566737  kBar

mulliken: Mulliken Atomic and Orbital Populations:

Species: Si                  
Atom  Qatom  Qorb
               3s      3s      3py     3pz     3px     3py     3pz     3px     
               3Pdxy   3Pdyz   3Pdz2   3Pdxz   3Pdx2-y2
   1  3.985   0.634   0.577   0.174   0.174   0.174   0.567   0.567   0.567
              0.130   0.130   0.080   0.130   0.080
   2  3.989   0.620   0.583   0.168   0.167   0.167   0.574   0.574   0.574
              0.133   0.133   0.081   0.133   0.081
   3  4.005   0.543   0.621   0.157   0.099   0.157   0.595   0.632   0.595
              0.139   0.143   0.096   0.143   0.086
   4  4.004   0.552   0.617   0.156   0.110   0.156   0.595   0.623   0.595
              0.138   0.141   0.094   0.141   0.086
   5  4.005   0.543   0.621   0.099   0.157   0.157   0.632   0.595   0.595
              0.143   0.143   0.088   0.139   0.093
   6  4.004   0.552   0.617   0.110   0.156   0.156   0.623   0.595   0.595
              0.141   0.141   0.088   0.138   0.092
   7  4.005   0.543   0.621   0.157   0.157   0.099   0.595   0.595   0.632
              0.143   0.139   0.088   0.143   0.093
   8  4.004   0.552   0.617   0.156   0.156   0.110   0.595   0.595   0.623
              0.141   0.138   0.088   0.141   0.092

mulliken: Qtot =       32.000

cgvc: Finished line minimization    1.  Mean atomic displacement =    0.1675

* Maximum dynamic memory allocated =   101 MB

siesta:                 ==============================
                            Begin CG move =      6
                        ==============================

outcoor: Atomic coordinates (Ang):                          
    0.11371949    0.11371946    0.11371941   1       1  Si
    1.48071114    1.48071113    1.48071086   1       2  Si
    2.80534602    2.80534611    0.12194752   1       3  Si
    4.13650067    4.13650060    1.48075541   1       4  Si
    2.80534608    0.12194860    2.80534606   1       5  Si
    4.13650042    1.48075504    4.13650055   1       6  Si
    0.12194851    2.80534608    2.80534613   1       7  Si
    1.48075501    4.13650044    4.13650070   1       8  Si
 Kpoints in:  256 . Kpoints trimmed:  256

siesta: k-grid: Number of k-points =   256
siesta: k-grid: Cutoff (effective) =    21.601 Ang
siesta: k-grid: Supercell and displacements
siesta: k-grid:    8   0   0      0.500
siesta: k-grid:    0   8   0      0.500
siesta: k-grid:    0   0   8      0.500
Naive supercell factors:     5    5    5

superc: Internal auxiliary supercell:     5 x     5 x     5  =     125
superc: Number of atoms, orbitals, and projectors:   1000  13000  16000

outcell: Unit cell vectors (Ang):
        5.399552   -0.057089   -0.057089
       -0.057089    5.399552   -0.057089
       -0.057089   -0.057089    5.399552

outcell: Cell vector modules (Ang)   :    5.400156    5.400156    5.400156
outcell: Cell angles (23,13,12) (deg):     91.2050     91.2050     91.2050
outcell: Cell volume (Ang**3)        :    157.3717
New_DM. Step:     7
Re-using DM from previous geometry...
Re-using DM without extrapolation (not allowed)
Density Matrix sparsity pattern changed.

InitMesh: MESH =    36 x    36 x    36 =       46656
InitMesh: Mesh cutoff (required, used) =   100.000   122.938 Ry

siesta: iscf   Eharris(eV)      E_KS(eV)   FreeEng(eV)   dDmax  Ef(eV)
siesta:    1     -861.8964     -859.6727     -859.6728  0.0681 -5.3879
siesta:    2     -862.1048     -861.6791     -861.6791  0.0892 -5.3833
siesta:    3     -861.8224     -861.4937     -861.4937  0.0120 -5.3906
siesta:    4     -861.8211     -861.7668     -861.7668  0.0026 -5.3931
siesta:    5     -861.8210     -861.7875     -861.7875  0.0015 -5.3928
siesta:    6     -861.8210     -861.8070     -861.8070  0.0003 -5.3922

siesta: E_KS(eV) =             -861.8117

siesta: Atomic forces (eV/Ang):
----------------------------------------
   Tot    0.000600    0.000600    0.000600
----------------------------------------
   Max    0.526390
   Res    0.320544    sqrt( Sum f_i^2 / 3N )
----------------------------------------
   Max    0.526390    constrained

Stress-tensor-Voigt (kbar):      -23.10      -23.10      -23.10      -11.91      -11.91      -11.91
(Free)E + p*V (eV/cell)     -859.5429
Target enthalpy (eV/cell)     -861.8117

siesta: Stress tensor (static) (eV/Ang**3):
        -0.014417   -0.007435   -0.007435
        -0.007435   -0.014417   -0.007435
        -0.007435   -0.007435   -0.014417

siesta: Pressure (static):         23.09872527  kBar

siesta: Stress tensor (total) (eV/Ang**3):
        -0.014417   -0.007435   -0.007435
        -0.007435   -0.014417   -0.007435
        -0.007435   -0.007435   -0.014417

siesta: Pressure (total):         23.09872527  kBar

mulliken: Mulliken Atomic and Orbital Populations:

Species: Si                  
Atom  Qatom  Qorb
               3s      3s      3py     3pz     3px     3py     3pz     3px     
               3Pdxy   3Pdyz   3Pdz2   3Pdxz   3Pdx2-y2
   1  3.994   0.670   0.556   0.226   0.226   0.226   0.526   0.526   0.526
              0.122   0.122   0.073   0.122   0.073
   2  4.006   0.605   0.587   0.196   0.196   0.196   0.558   0.558   0.558
              0.131   0.131   0.080   0.131   0.080
   3  4.002   0.603   0.589   0.204   0.170   0.204   0.552   0.574   0.552
              0.129   0.132   0.084   0.132   0.078
   4  3.997   0.624   0.578   0.200   0.203   0.200   0.551   0.549   0.551
              0.128   0.128   0.078   0.128   0.079
   5  4.002   0.603   0.589   0.170   0.204   0.204   0.574   0.552   0.552
              0.132   0.132   0.080   0.129   0.082
   6  3.997   0.624   0.578   0.203   0.200   0.200   0.549   0.551   0.551
              0.128   0.128   0.079   0.128   0.078
   7  4.002   0.603   0.589   0.204   0.204   0.170   0.552   0.552   0.574
              0.132   0.129   0.080   0.132   0.082
   8  3.997   0.624   0.578   0.200   0.200   0.203   0.551   0.551   0.549
              0.128   0.128   0.079   0.128   0.078

mulliken: Qtot =       32.000

* Maximum dynamic memory allocated =   101 MB

siesta:                 ==============================
                            Begin CG move =      7
                        ==============================

outcoor: Atomic coordinates (Ang):                          
    0.09913036    0.09913037    0.09913059   1       1  Si
    1.55891696    1.55891689    1.55891638   1       2  Si
    2.82686934    2.82686963    0.20184136   1       3  Si
    4.26986750    4.26986724    1.51788394   1       4  Si
    2.82686981    0.20184389    2.82686988   1       5  Si
    4.26986647    1.51788359    4.26986725   1       6  Si
    0.20184366    2.82686985    2.82686999   1       7  Si
    1.51788368    4.26986651    4.26986737   1       8  Si
 Kpoints in:  256 . Kpoints trimmed:  256

siesta: k-grid: Number of k-points =   256
siesta: k-grid: Cutoff (effective) =    22.027 Ang
siesta: k-grid: Supercell and displacements
siesta: k-grid:    8   0   0      0.500
siesta: k-grid:    0   8   0      0.500
siesta: k-grid:    0   0   8      0.500
Naive supercell factors:     5    5    5

superc: Internal auxiliary supercell:     5 x     5 x     5  =     125
superc: Number of atoms, orbitals, and projectors:   1000  13000  16000

outcell: Unit cell vectors (Ang):
        5.506446   -0.034678   -0.034678
       -0.034678    5.506446   -0.034678
       -0.034678   -0.034678    5.506446

outcell: Cell vector modules (Ang)   :    5.506664    5.506664    5.506664
outcell: Cell angles (23,13,12) (deg):     90.7194     90.7194     90.7193
outcell: Cell volume (Ang**3)        :    166.9407
New_DM. Step:     8
Re-using DM from previous geometry...
Re-using DM without extrapolation (not allowed)
Density Matrix sparsity pattern changed.

InitMesh: MESH =    36 x    36 x    36 =       46656
InitMesh: Mesh cutoff (required, used) =   100.000   118.159 Ry

siesta: iscf   Eharris(eV)      E_KS(eV)   FreeEng(eV)   dDmax  Ef(eV)
siesta:    1     -861.4687     -859.8570     -859.8570  0.0547 -5.1587
siesta:    2     -861.7283     -861.2102     -861.2105  0.1054 -5.2481
siesta:    3     -861.3802     -861.0008     -861.0011  0.0143 -5.1943
siesta:    4     -861.3797     -861.3152     -861.3155  0.0037 -5.1964
siesta:    5     -861.3795     -861.3417     -861.3421  0.0019 -5.1961
siesta:    6     -861.3795     -861.3628     -861.3631  0.0005 -5.1956

siesta: E_KS(eV) =             -861.3689

siesta: Atomic forces (eV/Ang):
----------------------------------------
   Tot    0.003506    0.003501    0.003506
----------------------------------------
   Max    1.377017
   Res    0.962227    sqrt( Sum f_i^2 / 3N )
----------------------------------------
   Max    1.377017    constrained

Stress-tensor-Voigt (kbar):       23.66       23.66       23.66        8.17        8.17        8.17
(Free)E + p*V (eV/cell)     -863.8341
Target enthalpy (eV/cell)     -861.3692

siesta: Stress tensor (static) (eV/Ang**3):
         0.014765    0.005100    0.005100
         0.005100    0.014765    0.005100
         0.005100    0.005100    0.014765

siesta: Pressure (static):        -23.65666977  kBar

siesta: Stress tensor (total) (eV/Ang**3):
         0.014765    0.005100    0.005100
         0.005100    0.014765    0.005100
         0.005100    0.005100    0.014765

siesta: Pressure (total):        -23.65666977  kBar

mulliken: Mulliken Atomic and Orbital Populations:

Species: Si                  
Atom  Qatom  Qorb
               3s      3s      3py     3pz     3px     3py     3pz     3px     
               3Pdxy   3Pdyz   3Pdz2   3Pdxz   3Pdx2-y2
   1  4.001   0.680   0.554   0.262   0.262   0.262   0.497   0.497   0.497
              0.117   0.117   0.070   0.117   0.070
   2  4.029   0.561   0.612   0.215   0.215   0.215   0.550   0.550   0.550
              0.131   0.131   0.084   0.131   0.084
   3  3.996   0.645   0.569   0.246   0.232   0.246   0.513   0.522   0.513
              0.120   0.121   0.075   0.121   0.072
   4  3.994   0.688   0.549   0.247   0.293   0.247   0.505   0.473   0.505
              0.121   0.114   0.067   0.114   0.072
   5  3.996   0.645   0.569   0.232   0.246   0.246   0.522   0.513   0.513
              0.121   0.121   0.073   0.120   0.075
   6  3.994   0.688   0.549   0.293   0.247   0.247   0.473   0.505   0.505
              0.114   0.114   0.071   0.121   0.068
   7  3.996   0.645   0.569   0.246   0.246   0.232   0.513   0.513   0.522
              0.121   0.120   0.073   0.121   0.075
   8  3.994   0.688   0.549   0.247   0.247   0.293   0.505   0.505   0.473
              0.114   0.121   0.071   0.114   0.068

mulliken: Qtot =       32.000

* Maximum dynamic memory allocated =   101 MB

siesta:                 ==============================
                            Begin CG move =      8
                        ==============================

outcoor: Atomic coordinates (Ang):                          
    0.11239327    0.11239324    0.11239322   1       1  Si
    1.48796273    1.48796272    1.48796243   1       2  Si
    2.80744113    2.80744124    0.12938872   1       3  Si
    4.14896876    4.14896867    1.48426708   1       4  Si
    2.80744123    0.12938993    2.80744122   1       5  Si
    4.14896844    1.48426671    4.14896863   1       6  Si
    0.12938983    2.80744123    2.80744129   1       7  Si
    1.48426669    4.14896846    4.14896878   1       8  Si
 Kpoints in:  256 . Kpoints trimmed:  256

siesta: k-grid: Number of k-points =   256
siesta: k-grid: Cutoff (effective) =    21.641 Ang
siesta: k-grid: Supercell and displacements
siesta: k-grid:    8   0   0      0.500
siesta: k-grid:    0   8   0      0.500
siesta: k-grid:    0   0   8      0.500
Naive supercell factors:     5    5    5

superc: Internal auxiliary supercell:     5 x     5 x     5  =     125
superc: Number of atoms, orbitals, and projectors:   1000  13000  16000

outcell: Unit cell vectors (Ang):
        5.409579   -0.054986   -0.054986
       -0.054986    5.409579   -0.054986
       -0.054986   -0.054986    5.409580

outcell: Cell vector modules (Ang)   :    5.410138    5.410138    5.410139
outcell: Cell angles (23,13,12) (deg):     91.1587     91.1587     91.1587
outcell: Cell volume (Ang**3)        :    158.2541
New_DM. Step:     9
Re-using DM from previous geometry...
Re-using DM without extrapolation (not allowed)
Density Matrix sparsity pattern changed.

InitMesh: MESH =    36 x    36 x    36 =       46656
InitMesh: Mesh cutoff (required, used) =   100.000   122.476 Ry

siesta: iscf   Eharris(eV)      E_KS(eV)   FreeEng(eV)   dDmax  Ef(eV)
siesta:    1     -861.8892     -863.0702     -863.0705  0.0469 -5.3705
siesta:    2     -862.0662     -861.7050     -861.7050  0.0793 -5.3765
siesta:    3     -861.8269     -861.9806     -861.9807  0.0122 -5.3649
siesta:    4     -861.8259     -861.7865     -861.7866  0.0034 -5.3614
siesta:    5     -861.8258     -861.7951     -861.7951  0.0021 -5.3617
siesta:    6     -861.8258     -861.8180     -861.8180  0.0004 -5.3622

siesta: E_KS(eV) =             -861.8231

siesta: Atomic forces (eV/Ang):
----------------------------------------
   Tot    0.004277    0.004279    0.004269
----------------------------------------
   Max    0.615105
   Res    0.353295    sqrt( Sum f_i^2 / 3N )
----------------------------------------
   Max    0.615105    constrained

Stress-tensor-Voigt (kbar):      -17.49      -17.49      -17.49       -9.66       -9.66       -9.66
(Free)E + p*V (eV/cell)     -860.0951
Target enthalpy (eV/cell)     -861.8231

siesta: Stress tensor (static) (eV/Ang**3):
        -0.010919   -0.006029   -0.006029
        -0.006029   -0.010919   -0.006029
        -0.006029   -0.006029   -0.010919

siesta: Pressure (static):         17.49462978  kBar

siesta: Stress tensor (total) (eV/Ang**3):
        -0.010919   -0.006029   -0.006029
        -0.006029   -0.010919   -0.006029
        -0.006029   -0.006029   -0.010919

siesta: Pressure (total):         17.49462978  kBar

mulliken: Mulliken Atomic and Orbital Populations:

Species: Si                  
Atom  Qatom  Qorb
               3s      3s      3py     3pz     3px     3py     3pz     3px     
               3Pdxy   3Pdyz   3Pdz2   3Pdxz   3Pdx2-y2
   1  3.996   0.672   0.554   0.230   0.230   0.230   0.523   0.523   0.523
              0.121   0.121   0.073   0.121   0.073
   2  4.008   0.602   0.588   0.198   0.198   0.198   0.557   0.557   0.557
              0.130   0.130   0.080   0.130   0.080
   3  4.002   0.608   0.586   0.208   0.176   0.208   0.549   0.569   0.549
              0.128   0.131   0.083   0.131   0.078
   4  3.997   0.631   0.575   0.205   0.212   0.205   0.547   0.541   0.547
              0.128   0.126   0.077   0.126   0.078
   5  4.002   0.608   0.586   0.176   0.208   0.208   0.569   0.549   0.549
              0.131   0.131   0.079   0.128   0.081
   6  3.997   0.631   0.575   0.212   0.205   0.205   0.541   0.547   0.547
              0.126   0.126   0.078   0.128   0.077
   7  4.002   0.608   0.586   0.208   0.208   0.176   0.549   0.549   0.569
              0.131   0.128   0.079   0.131   0.081
   8  3.997   0.631   0.575   0.205   0.205   0.212   0.547   0.547   0.541
              0.126   0.128   0.078   0.126   0.077

mulliken: Qtot =       32.000

cgvc: Finished line minimization    2.  Mean atomic displacement =    0.1832

* Maximum dynamic memory allocated =   101 MB

siesta:                 ==============================
                            Begin CG move =      9
                        ==============================

outcoor: Atomic coordinates (Ang):                          
    0.13879138    0.13879164    0.13879248   1       1  Si
    1.44574165    1.44574152    1.44574322   1       2  Si
    2.90726132    2.90726097    0.15054104   1       3  Si
    4.28537085    4.28537094    1.47433345   1       4  Si
    2.90726038    0.15054081    2.90725993   1       5  Si
    4.28537151    1.47433348    4.28537030   1       6  Si
    0.15054052    2.90726025    2.90726038   1       7  Si
    1.47433323    4.28537151    4.28536995   1       8  Si
 Kpoints in:  256 . Kpoints trimmed:  256

siesta: k-grid: Number of k-points =   256
siesta: k-grid: Cutoff (effective) =    21.955 Ang
siesta: k-grid: Supercell and displacements
siesta: k-grid:    8   0   0      0.500
siesta: k-grid:    0   8   0      0.500
siesta: k-grid:    0   0   8      0.500
Naive supercell factors:     5    5    5

superc: Internal auxiliary supercell:     5 x     5 x     5  =     125
superc: Number of atoms, orbitals, and projectors:   1000  13000  16000

outcell: Unit cell vectors (Ang):
        5.488768   -0.022305   -0.022304
       -0.022305    5.488768   -0.022305
       -0.022304   -0.022305    5.488769

outcell: Cell vector modules (Ang)   :    5.488859    5.488859    5.488859
outcell: Cell angles (23,13,12) (deg):     90.4647     90.4647     90.4647
outcell: Cell volume (Ang**3)        :    165.3496
New_DM. Step:    10
Re-using DM from previous geometry...
Re-using DM without extrapolation (not allowed)
Density Matrix sparsity pattern changed.

InitMesh: MESH =    36 x    36 x    36 =       46656
InitMesh: Mesh cutoff (required, used) =   100.000   118.905 Ry

siesta: iscf   Eharris(eV)      E_KS(eV)   FreeEng(eV)   dDmax  Ef(eV)
siesta:    1     -862.0170     -860.4210     -860.4210  0.0439 -5.2762
siesta:    2     -863.0259     -861.1020     -861.1020  0.2011 -5.3639
siesta:    3     -861.7159     -861.0458     -861.0458  0.0345 -5.3044
siesta:    4     -861.7160     -861.5377     -861.5377  0.0065 -5.3070
siesta:    5     -861.7156     -861.6217     -861.6217  0.0019 -5.3062
siesta:    6     -861.7156     -861.6673     -861.6673  0.0008 -5.3058

siesta: E_KS(eV) =             -861.6977

siesta: Atomic forces (eV/Ang):
----------------------------------------
   Tot   -0.002517   -0.002515   -0.002517
----------------------------------------
   Max    1.203358
   Res    0.600577    sqrt( Sum f_i^2 / 3N )
----------------------------------------
   Max    1.203358    constrained

Stress-tensor-Voigt (kbar):       18.62       18.62       18.62      -13.10      -13.10      -13.10
(Free)E + p*V (eV/cell)     -863.6194
Target enthalpy (eV/cell)     -861.6977

siesta: Stress tensor (static) (eV/Ang**3):
         0.011622   -0.008175   -0.008175
        -0.008175    0.011622   -0.008175
        -0.008175   -0.008175    0.011622

siesta: Pressure (static):        -18.62117001  kBar

siesta: Stress tensor (total) (eV/Ang**3):
         0.011622   -0.008175   -0.008175
        -0.008175    0.011622   -0.008175
        -0.008175   -0.008175    0.011622

siesta: Pressure (total):        -18.62117001  kBar

mulliken: Mulliken Atomic and Orbital Populations:

Species: Si                  
Atom  Qatom  Qorb
               3s      3s      3py     3pz     3px     3py     3pz     3px     
               3Pdxy   3Pdyz   3Pdz2   3Pdxz   3Pdx2-y2
   1  4.016   0.563   0.610   0.197   0.197   0.197   0.562   0.562   0.562
              0.133   0.133   0.084   0.133   0.084
   2  4.000   0.673   0.554   0.251   0.251   0.251   0.508   0.508   0.508
              0.118   0.118   0.071   0.118   0.071
   3  3.997   0.682   0.550   0.240   0.288   0.240   0.513   0.480   0.513
              0.122   0.115   0.066   0.115   0.074
   4  3.997   0.645   0.568   0.238   0.229   0.238   0.520   0.526   0.520
              0.121   0.122   0.075   0.122   0.073
   5  3.997   0.682   0.550   0.288   0.240   0.240   0.480   0.513   0.513
              0.115   0.115   0.072   0.122   0.068
   6  3.997   0.645   0.568   0.229   0.238   0.238   0.526   0.520   0.520
              0.122   0.122   0.073   0.121   0.074
   7  3.997   0.682   0.550   0.240   0.240   0.288   0.513   0.513   0.480
              0.115   0.122   0.072   0.115   0.068
   8  3.997   0.645   0.568   0.238   0.238   0.229   0.520   0.520   0.526
              0.122   0.121   0.073   0.122   0.074

mulliken: Qtot =       32.000

* Maximum dynamic memory allocated =   101 MB

siesta:                 ==============================
                            Begin CG move =     10
                        ==============================

outcoor: Atomic coordinates (Ang):                          
    0.12277003    0.12277012    0.12277044   1       1  Si
    1.47165572    1.47165565    1.47165616   1       2  Si
    2.84706710    2.84706702    0.13776177   1       3  Si
    4.20327914    4.20327912    1.48048157   1       4  Si
    2.84706679    0.13776241    2.84706660   1       5  Si
    4.20327920    1.48048136    4.20327884   1       6  Si
    0.13776223    2.84706674    2.84706683   1       7  Si
    1.48048125    4.20327922    4.20327879   1       8  Si
 Kpoints in:  256 . Kpoints trimmed:  256

siesta: k-grid: Number of k-points =   256
siesta: k-grid: Cutoff (effective) =    21.766 Ang
siesta: k-grid: Supercell and displacements
siesta: k-grid:    8   0   0      0.500
siesta: k-grid:    0   8   0      0.500
siesta: k-grid:    0   0   8      0.500
Naive supercell factors:     5    5    5

superc: Internal auxiliary supercell:     5 x     5 x     5  =     125
superc: Number of atoms, orbitals, and projectors:   1000  13000  16000

outcell: Unit cell vectors (Ang):
        5.441153   -0.041956   -0.041956
       -0.041956    5.441153   -0.041956
       -0.041956   -0.041956    5.441153

outcell: Cell vector modules (Ang)   :    5.441476    5.441477    5.441477
outcell: Cell angles (23,13,12) (deg):     90.8801     90.8801     90.8801
outcell: Cell volume (Ang**3)        :    161.0627
New_DM. Step:    11
Re-using DM from previous geometry...
Re-using DM without extrapolation (not allowed)
Density Matrix sparsity pattern changed.

InitMesh: MESH =    36 x    36 x    36 =       46656
InitMesh: Mesh cutoff (required, used) =   100.000   121.027 Ry

siesta: iscf   Eharris(eV)      E_KS(eV)   FreeEng(eV)   dDmax  Ef(eV)
siesta:    1     -862.0358     -862.4840     -862.4840  0.0243 -5.3491
siesta:    2     -862.3542     -861.7318     -861.7318  0.0961 -5.3527
siesta:    3     -861.9363     -862.0575     -862.0575  0.0179 -5.3354
siesta:    4     -861.9360     -861.8926     -861.8926  0.0019 -5.3310
siesta:    5     -861.9360     -861.9021     -861.9021  0.0013 -5.3315
siesta:    6     -861.9359     -861.9253     -861.9253  0.0003 -5.3323

siesta: E_KS(eV) =             -861.9314

siesta: Atomic forces (eV/Ang):
----------------------------------------
   Tot   -0.002726   -0.002722   -0.002742
----------------------------------------
   Max    0.118351
   Res    0.060523    sqrt( Sum f_i^2 / 3N )
----------------------------------------
   Max    0.118351    constrained

Stress-tensor-Voigt (kbar):       -0.36       -0.36       -0.36      -11.51      -11.51      -11.51
(Free)E + p*V (eV/cell)     -861.8948
Target enthalpy (eV/cell)     -861.9314

siesta: Stress tensor (static) (eV/Ang**3):
        -0.000227   -0.007184   -0.007184
        -0.007184   -0.000227   -0.007184
        -0.007184   -0.007184   -0.000227

siesta: Pressure (static):          0.36368234  kBar

siesta: Stress tensor (total) (eV/Ang**3):
        -0.000227   -0.007184   -0.007184
        -0.007184   -0.000227   -0.007184
        -0.007184   -0.007184   -0.000227

siesta: Pressure (total):          0.36368234  kBar

mulliken: Mulliken Atomic and Orbital Populations:

Species: Si                  
Atom  Qatom  Qorb
               3s      3s      3py     3pz     3px     3py     3pz     3px     
               3Pdxy   3Pdyz   3Pdz2   3Pdxz   3Pdx2-y2
   1  4.001   0.630   0.575   0.217   0.217   0.217   0.539   0.539   0.539
              0.125   0.125   0.077   0.125   0.077
   2  3.999   0.634   0.573   0.216   0.216   0.216   0.538   0.538   0.538
              0.126   0.126   0.076   0.126   0.076
   3  4.000   0.640   0.570   0.219   0.223   0.219   0.536   0.533   0.536
              0.125   0.125   0.075   0.125   0.076
   4  4.000   0.638   0.571   0.222   0.221   0.222   0.534   0.534   0.534
              0.125   0.124   0.076   0.124   0.076
   5  4.000   0.640   0.570   0.223   0.219   0.219   0.533   0.536   0.536
              0.125   0.125   0.076   0.125   0.075
   6  4.000   0.638   0.571   0.221   0.222   0.222   0.534   0.534   0.534
              0.124   0.124   0.076   0.125   0.076
   7  4.000   0.640   0.570   0.219   0.219   0.223   0.536   0.536   0.533
              0.125   0.125   0.076   0.125   0.075
   8  4.000   0.638   0.571   0.222   0.222   0.221   0.534   0.534   0.534
              0.124   0.125   0.076   0.124   0.076

mulliken: Qtot =       32.000

cgvc: Finished line minimization    3.  Mean atomic displacement =    0.0730

* Maximum dynamic memory allocated =   101 MB

siesta:                 ==============================
                            Begin CG move =     11
                        ==============================

outcoor: Atomic coordinates (Ang):                          
    0.13687054    0.13687028    0.13686967   1       1  Si
    1.51311454    1.51311483    1.51310920   1       2  Si
    2.89156409    2.89156465    0.16234867   1       3  Si
    4.25699709    4.25699720    1.56471132   1       4  Si
    2.89156640    0.16234951    2.89156777   1       5  Si
    4.25699753    1.56471374    4.25699834   1       6  Si
    0.16234986    2.89156767    2.89156776   1       7  Si
    1.56471466    4.25699815    4.25699763   1       8  Si
 Kpoints in:  256 . Kpoints trimmed:  256

siesta: k-grid: Number of k-points =   256
siesta: k-grid: Cutoff (effective) =    21.800 Ang
siesta: k-grid: Supercell and displacements
siesta: k-grid:    8   0   0      0.500
siesta: k-grid:    0   8   0      0.500
siesta: k-grid:    0   0   8      0.500
Naive supercell factors:     5    5    5

superc: Internal auxiliary supercell:     5 x     5 x     5  =     125
superc: Number of atoms, orbitals, and projectors:   1000  13000  16000

outcell: Unit cell vectors (Ang):
        5.449999    0.009535    0.009535
        0.009535    5.449999    0.009535
        0.009535    0.009535    5.450000

outcell: Cell vector modules (Ang)   :    5.450016    5.450016    5.450016
outcell: Cell angles (23,13,12) (deg):     89.7993     89.7993     89.7993
outcell: Cell volume (Ang**3)        :    161.8771
New_DM. Step:    12
Re-using DM from previous geometry...
Re-using DM without extrapolation (not allowed)
Density Matrix sparsity pattern changed.

InitMesh: MESH =    36 x    36 x    36 =       46656
InitMesh: Mesh cutoff (required, used) =   100.000   120.593 Ry

siesta: iscf   Eharris(eV)      E_KS(eV)   FreeEng(eV)   dDmax  Ef(eV)
siesta:    1     -861.9507     -861.7702     -861.7702  0.0199 -5.3032
siesta:    2     -861.9822     -861.9194     -861.9194  0.0257 -5.3170
siesta:    3     -861.9403     -861.9055     -861.9055  0.0039 -5.3091
siesta:    4     -861.9402     -861.9325     -861.9325  0.0004 -5.3090

siesta: E_KS(eV) =             -861.9349

siesta: Atomic forces (eV/Ang):
----------------------------------------
   Tot    0.005051    0.005051    0.005062
----------------------------------------
   Max    0.440380
   Res    0.227826    sqrt( Sum f_i^2 / 3N )
----------------------------------------
   Max    0.440380    constrained

Stress-tensor-Voigt (kbar):        3.57        3.57        3.57        7.50        7.50        7.50
(Free)E + p*V (eV/cell)     -862.2960
Target enthalpy (eV/cell)     -861.9349

siesta: Stress tensor (static) (eV/Ang**3):
         0.002231    0.004684    0.004684
         0.004684    0.002231    0.004684
         0.004684    0.004684    0.002231

siesta: Pressure (static):         -3.57435446  kBar

siesta: Stress tensor (total) (eV/Ang**3):
         0.002231    0.004684    0.004684
         0.004684    0.002231    0.004684
         0.004684    0.004684    0.002231

siesta: Pressure (total):         -3.57435446  kBar

mulliken: Mulliken Atomic and Orbital Populations:

Species: Si                  
Atom  Qatom  Qorb
               3s      3s      3py     3pz     3px     3py     3pz     3px     
               3Pdxy   3Pdyz   3Pdz2   3Pdxz   3Pdx2-y2
   1  3.999   0.650   0.564   0.228   0.228   0.228   0.528   0.528   0.528
              0.123   0.123   0.074   0.123   0.074
   2  3.999   0.660   0.559   0.233   0.233   0.233   0.523   0.523   0.523
              0.122   0.122   0.073   0.122   0.073
   3  4.000   0.638   0.570   0.224   0.220   0.224   0.532   0.535   0.532
              0.124   0.124   0.076   0.124   0.075
   4  4.000   0.635   0.572   0.224   0.210   0.224   0.533   0.543   0.533
              0.124   0.125   0.077   0.125   0.075
   5  4.000   0.638   0.570   0.220   0.224   0.224   0.535   0.532   0.532
              0.124   0.124   0.075   0.124   0.076
   6  4.000   0.635   0.572   0.210   0.224   0.224   0.543   0.533   0.533
              0.125   0.125   0.075   0.124   0.076
   7  4.000   0.638   0.570   0.224   0.224   0.220   0.532   0.532   0.535
              0.124   0.124   0.075   0.124   0.076
   8  4.000   0.635   0.572   0.224   0.224   0.210   0.533   0.533   0.543
              0.125   0.124   0.075   0.125   0.076

mulliken: Qtot =       32.000

* Maximum dynamic memory allocated =   101 MB

siesta:                 ==============================
                            Begin CG move =     12
                        ==============================

outcoor: Atomic coordinates (Ang):                          
    0.12968987    0.12968979    0.12968964   1       1  Si
    1.49212018    1.49212030    1.49211775   1       2  Si
    2.86913079    2.86913103    0.14989100   1       3  Si
    4.22988491    4.22988495    1.52220694   1       4  Si
    2.86913177    0.14989172    2.86913236   1       5  Si
    4.22988515    1.52220802    4.22988537   1       6  Si
    0.14989181    2.86913237    2.86913246   1       7  Si
    1.52220842    4.22988547    4.22988499   1       8  Si
 Kpoints in:  256 . Kpoints trimmed:  256

siesta: k-grid: Number of k-points =   256
siesta: k-grid: Cutoff (effective) =    21.782 Ang
siesta: k-grid: Supercell and displacements
siesta: k-grid:    8   0   0      0.500
siesta: k-grid:    0   8   0      0.500
siesta: k-grid:    0   0   8      0.500
Naive supercell factors:     5    5    5

superc: Internal auxiliary supercell:     5 x     5 x     5  =     125
superc: Number of atoms, orbitals, and projectors:   1000  13000  16000

outcell: Unit cell vectors (Ang):
        5.445531   -0.016471   -0.016471
       -0.016471    5.445531   -0.016471
       -0.016471   -0.016471    5.445532

outcell: Cell vector modules (Ang)   :    5.445581    5.445581    5.445581
outcell: Cell angles (23,13,12) (deg):     90.3461     90.3461     90.3461
outcell: Cell volume (Ang**3)        :    161.4763
New_DM. Step:    13
Re-using DM from previous geometry...
Re-using DM without extrapolation (not allowed)
Density Matrix sparsity pattern changed.

InitMesh: MESH =    36 x    36 x    36 =       46656
InitMesh: Mesh cutoff (required, used) =   100.000   120.795 Ry

siesta: iscf   Eharris(eV)      E_KS(eV)   FreeEng(eV)   dDmax  Ef(eV)
siesta:    1     -861.9607     -862.0155     -862.0155  0.0075 -5.3135
siesta:    2     -861.9685     -861.9528     -861.9528  0.0133 -5.3097
siesta:    3     -861.9580     -861.9643     -861.9643  0.0019 -5.3112
siesta:    4     -861.9580     -861.9561     -861.9561  0.0002 -5.3110

siesta: E_KS(eV) =             -861.9566

siesta: Atomic forces (eV/Ang):
----------------------------------------
   Tot   -0.004586   -0.004586   -0.004583
----------------------------------------
   Max    0.188505
   Res    0.107688    sqrt( Sum f_i^2 / 3N )
----------------------------------------
   Max    0.188505    constrained

Stress-tensor-Voigt (kbar):        1.95        1.95        1.95       -1.84       -1.84       -1.84
(Free)E + p*V (eV/cell)     -862.1527
Target enthalpy (eV/cell)     -861.9566

siesta: Stress tensor (static) (eV/Ang**3):
         0.001214   -0.001149   -0.001149
        -0.001149    0.001214   -0.001149
        -0.001149   -0.001149    0.001214

siesta: Pressure (static):         -1.94548374  kBar

siesta: Stress tensor (total) (eV/Ang**3):
         0.001214   -0.001149   -0.001149
        -0.001149    0.001214   -0.001149
        -0.001149   -0.001149    0.001214

siesta: Pressure (total):         -1.94548374  kBar

mulliken: Mulliken Atomic and Orbital Populations:

Species: Si                  
Atom  Qatom  Qorb
               3s      3s      3py     3pz     3px     3py     3pz     3px     
               3Pdxy   3Pdyz   3Pdz2   3Pdxz   3Pdx2-y2
   1  4.000   0.639   0.570   0.222   0.222   0.222   0.533   0.533   0.533
              0.124   0.124   0.075   0.124   0.075
   2  4.000   0.647   0.566   0.225   0.225   0.225   0.531   0.531   0.531
              0.124   0.124   0.075   0.124   0.075
   3  4.000   0.639   0.570   0.221   0.222   0.221   0.534   0.534   0.534
              0.124   0.124   0.075   0.124   0.075
   4  4.000   0.637   0.571   0.222   0.216   0.222   0.534   0.538   0.534
              0.124   0.125   0.076   0.125   0.075
   5  4.000   0.639   0.570   0.222   0.221   0.221   0.534   0.534   0.534
              0.124   0.124   0.075   0.124   0.075
   6  4.000   0.637   0.571   0.216   0.222   0.222   0.538   0.534   0.534
              0.125   0.125   0.076   0.124   0.076
   7  4.000   0.639   0.570   0.221   0.221   0.222   0.534   0.534   0.534
              0.124   0.124   0.075   0.124   0.075
   8  4.000   0.637   0.571   0.222   0.222   0.216   0.534   0.534   0.538
              0.125   0.124   0.076   0.125   0.076

mulliken: Qtot =       32.000

cgvc: Finished line minimization    4.  Mean atomic displacement =    0.0361

* Maximum dynamic memory allocated =   101 MB

siesta:                 ==============================
                            Begin CG move =     13
                        ==============================

outcoor: Atomic coordinates (Ang):                          
    0.14382067    0.14382039    0.14381953   1       1  Si
    1.50902741    1.50902748    1.50902585   1       2  Si
    2.88811700    2.88811724    0.17299906   1       3  Si
    4.24507233    4.24507261    1.54393704   1       4  Si
    2.88811796    0.17300157    2.88811715   1       5  Si
    4.24507231    1.54393792    4.24507311   1       6  Si
    0.17300133    2.88811851    2.88811749   1       7  Si
    1.54393826    4.24507265    4.24507278   1       8  Si
 Kpoints in:  256 . Kpoints trimmed:  256

siesta: k-grid: Number of k-points =   256
siesta: k-grid: Cutoff (effective) =    21.786 Ang
siesta: k-grid: Supercell and displacements
siesta: k-grid:    8   0   0      0.500
siesta: k-grid:    0   8   0      0.500
siesta: k-grid:    0   0   8      0.500
Naive supercell factors:     5    5    5

superc: Internal auxiliary supercell:     5 x     5 x     5  =     125
superc: Number of atoms, orbitals, and projectors:   1000  13000  16000

outcell: Unit cell vectors (Ang):
        5.446511    0.005437    0.005437
        0.005437    5.446511    0.005437
        0.005437    0.005437    5.446511

outcell: Cell vector modules (Ang)   :    5.446516    5.446516    5.446517
outcell: Cell angles (23,13,12) (deg):     89.8856     89.8856     89.8855
outcell: Cell volume (Ang**3)        :    161.5674
New_DM. Step:    14
Re-using DM from previous geometry...
Re-using DM without extrapolation (not allowed)
Density Matrix sparsity pattern changed.

InitMesh: MESH =    36 x    36 x    36 =       46656
InitMesh: Mesh cutoff (required, used) =   100.000   120.746 Ry

siesta: iscf   Eharris(eV)      E_KS(eV)   FreeEng(eV)   dDmax  Ef(eV)
siesta:    1     -861.9684     -861.9404     -861.9404  0.0194 -5.3313
siesta:    2     -861.9689     -861.9668     -861.9668  0.0051 -5.3304
siesta:    3     -861.9677     -861.9667     -861.9667  0.0005 -5.3303

siesta: E_KS(eV) =             -861.9673

siesta: Atomic forces (eV/Ang):
----------------------------------------
   Tot    0.000578    0.000579    0.000587
----------------------------------------
   Max    0.094728
   Res    0.055878    sqrt( Sum f_i^2 / 3N )
----------------------------------------
   Max    0.094728    constrained

Stress-tensor-Voigt (kbar):        2.59        2.59        2.59        1.05        1.05        1.05
(Free)E + p*V (eV/cell)     -862.2287
Target enthalpy (eV/cell)     -861.9673

siesta: Stress tensor (static) (eV/Ang**3):
         0.001618    0.000655    0.000655
         0.000655    0.001618    0.000655
         0.000655    0.000655    0.001618

siesta: Pressure (static):         -2.59190561  kBar

siesta: Stress tensor (total) (eV/Ang**3):
         0.001618    0.000655    0.000655
         0.000655    0.001618    0.000655
         0.000655    0.000655    0.001618

siesta: Pressure (total):         -2.59190561  kBar

mulliken: Mulliken Atomic and Orbital Populations:

Species: Si                  
Atom  Qatom  Qorb
               3s      3s      3py     3pz     3px     3py     3pz     3px     
               3Pdxy   3Pdyz   3Pdz2   3Pdxz   3Pdx2-y2
   1  3.999   0.646   0.566   0.225   0.225   0.225   0.531   0.531   0.531
              0.124   0.124   0.075   0.124   0.075
   2  4.000   0.648   0.565   0.226   0.226   0.226   0.530   0.530   0.530
              0.123   0.123   0.074   0.123   0.074
   3  4.000   0.638   0.570   0.223   0.218   0.223   0.534   0.537   0.534
              0.124   0.125   0.076   0.125   0.075
   4  4.000   0.638   0.570   0.222   0.217   0.222   0.534   0.538   0.534
              0.124   0.125   0.076   0.125   0.075
   5  4.000   0.638   0.570   0.218   0.223   0.223   0.537   0.534   0.534
              0.125   0.125   0.075   0.124   0.076
   6  4.000   0.638   0.570   0.217   0.222   0.222   0.538   0.534   0.534
              0.125   0.125   0.075   0.124   0.076
   7  4.000   0.638   0.570   0.223   0.223   0.218   0.534   0.534   0.537
              0.125   0.124   0.075   0.125   0.076
   8  4.000   0.638   0.570   0.222   0.222   0.217   0.534   0.534   0.538
              0.125   0.124   0.075   0.125   0.076

mulliken: Qtot =       32.000

* Maximum dynamic memory allocated =   101 MB

siesta:                 ==============================
                            Begin CG move =     14
                        ==============================

outcoor: Atomic coordinates (Ang):                          
    0.14369912    0.14369884    0.14369799   1       1  Si
    1.50888275    1.50888282    1.50888118   1       2  Si
    2.88795468    2.88795493    0.17280136   1       3  Si
    4.24494341    4.24494370    1.54375215   1       4  Si
    2.88795565    0.17280385    2.88795485   1       5  Si
    4.24494340    1.54375303    4.24494419   1       6  Si
    0.17280361    2.88795620    2.88795519   1       7  Si
    1.54375337    4.24494374    4.24494386   1       8  Si
 Kpoints in:  256 . Kpoints trimmed:  256

siesta: k-grid: Number of k-points =   256
siesta: k-grid: Cutoff (effective) =    21.786 Ang
siesta: k-grid: Supercell and displacements
siesta: k-grid:    8   0   0      0.500
siesta: k-grid:    0   8   0      0.500
siesta: k-grid:    0   0   8      0.500
Naive supercell factors:     5    5    5

superc: Internal auxiliary supercell:     5 x     5 x     5  =     125
superc: Number of atoms, orbitals, and projectors:   1000  13000  16000

outcell: Unit cell vectors (Ang):
        5.446502    0.005250    0.005250
        0.005250    5.446502    0.005250
        0.005250    0.005250    5.446503

outcell: Cell vector modules (Ang)   :    5.446507    5.446507    5.446508
outcell: Cell angles (23,13,12) (deg):     89.8895     89.8895     89.8895
outcell: Cell volume (Ang**3)        :    161.5667
New_DM. Step:    15
Re-using DM from previous geometry...
Re-using DM without extrapolation (not allowed)

InitMesh: MESH =    36 x    36 x    36 =       46656
InitMesh: Mesh cutoff (required, used) =   100.000   120.746 Ry

siesta: iscf   Eharris(eV)      E_KS(eV)   FreeEng(eV)   dDmax  Ef(eV)
siesta:    1     -861.9677     -861.9674     -861.9674  0.0003 -5.3305

siesta: E_KS(eV) =             -861.9676

siesta: Atomic forces (eV/Ang):
----------------------------------------
   Tot    0.000994    0.000998    0.000989
----------------------------------------
   Max    0.091094
   Res    0.056399    sqrt( Sum f_i^2 / 3N )
[...]
          8.47   8.71   9.01   9.05   9.45   9.47  14.89  14.99  15.02  15.86
         15.94  15.96  16.12  16.38  16.43  16.43  16.92  16.93  17.71  18.64
         18.66  18.75  19.01  19.03  19.42  19.65  20.17  20.17  20.77  21.38
         28.22  28.26  28.30  29.27  29.79  31.04  31.05  31.88  44.83  47.42
         47.46  52.27  57.87  57.89  60.80  61.68  66.31  77.36  77.41  80.64
         82.50  82.55  87.71  93.58
 241  1 -15.74 -15.38 -15.37 -15.16 -12.56 -12.33 -12.32 -11.91  -8.12  -7.83
         -7.82  -7.31  -7.14  -7.11  -7.09  -6.77  -3.78  -3.43  -3.40  -3.40
         -2.38  -2.37  -2.10  -2.09  -2.06  -1.61  -1.58  -1.58   2.13   2.13
          2.65   2.82   2.96   3.48   3.84   3.84   3.93   4.33   4.53   4.53
          5.32   6.54   6.55   6.82   6.82   6.98   7.56   7.87   8.38   8.45
          8.47   8.69   9.02   9.05   9.47   9.47  14.90  15.02  15.02  15.83
         15.94  15.97  16.12  16.37  16.41  16.42  16.92  16.92  17.71  18.64
         18.65  18.75  19.05  19.05  19.42  19.65  20.16  20.16  20.78  21.34
         28.24  28.25  28.33  29.24  29.79  30.99  31.00  31.92  44.84  47.40
         47.48  52.28  57.59  57.68  60.87  61.89  66.36  77.40  77.44  80.55
         82.44  82.44  87.99  93.65
 242  1 -15.92 -15.48 -15.48 -15.13 -12.22 -11.82 -11.81 -11.30  -9.03  -8.64
         -8.64  -8.14  -7.25  -7.18  -7.17  -6.73  -3.44  -3.18  -2.97  -2.96
         -2.24  -2.24  -1.84  -1.78  -1.20  -1.01  -0.83  -0.82   0.98   0.98
          1.55   1.76   2.36   2.61   2.78   3.09   3.10   4.01   4.01   4.64
          5.88   7.42   7.42   7.73   7.73   7.95   8.23   8.90   9.28   9.28
          9.58   9.62   9.74  10.82  10.97  10.98  13.29  13.53  13.54  14.07
         14.72  14.74  15.09  15.37  15.59  15.80  16.01  16.01  18.02  18.69
         18.72  18.72  19.58  19.58  19.89  20.17  21.03  21.03  21.48  21.52
         27.41  27.42  27.45  28.14  28.76  33.42  33.42  37.22  42.28  44.12
         44.17  50.74  55.84  55.91  58.72  60.76  62.42  75.97  76.00  81.03
         81.76  81.79  85.94  92.64
 243  1 -16.02 -15.55 -15.54 -15.13 -11.81 -11.31 -11.31 -10.70  -9.72  -9.33
         -9.32  -8.88  -7.32  -7.22  -7.21  -6.71  -3.53  -2.94  -2.91  -2.90
         -1.66  -1.66  -1.42  -1.19  -0.38  -0.19  -0.18  -0.14   0.15   0.15
          0.47   0.96   1.22   1.64   2.08   2.09   2.75   4.07   4.08   5.00
          6.27   7.75   7.75   8.13   8.69   8.69   9.11   9.44  10.03  10.24
         10.24  10.71  11.59  11.67  11.69  12.25  12.34  12.80  12.94  12.94
         13.51  13.73  13.75  14.26  14.72  14.93  14.93  15.26  17.93  18.79
         18.80  19.55  20.25  20.25  20.30  20.86  21.72  21.72  21.91  21.99
         26.32  26.58  26.59  26.71  27.93  35.63  35.65  43.89  48.29  48.43
         48.61  52.84  54.90  54.91  61.01  61.71  61.80  68.10  68.13  77.15
         80.83  80.87  81.95  83.31
 244  1 -16.02 -15.55 -15.54 -15.13 -11.81 -11.31 -11.31 -10.71  -9.72  -9.32
         -9.32  -8.88  -7.32  -7.22  -7.21  -6.71  -3.53  -2.94  -2.91  -2.90
         -1.65  -1.65  -1.42  -1.18  -0.39  -0.20  -0.20  -0.15   0.15   0.15
          0.46   0.95   1.23   1.65   2.09   2.10   2.75   4.07   4.08   5.00
          6.27   7.75   7.75   8.13   8.69   8.69   9.11   9.44  10.02  10.26
         10.26  10.71  11.61  11.67  11.68  12.24  12.35  12.79  12.90  12.91
         13.49  13.74  13.75  14.26  14.73  14.94  14.96  15.26  17.92  18.79
         18.80  19.56  20.25  20.25  20.31  20.86  21.72  21.73  21.91  21.98
         26.32  26.59  26.59  26.71  27.93  35.64  35.67  43.88  48.31  48.45
         48.66  52.86  54.92  54.92  61.01  61.68  61.81  68.18  68.34  77.13
         80.82  80.86  81.96  83.29
 245  1 -15.93 -15.48 -15.48 -15.12 -12.22 -11.82 -11.82 -11.30  -9.03  -8.64
         -8.64  -8.14  -7.26  -7.18  -7.17  -6.72  -3.45  -3.17  -2.96  -2.95
         -2.24  -2.24  -1.83  -1.79  -1.21  -1.01  -0.83  -0.83   0.96   0.97
          1.54   1.76   2.37   2.62   2.77   3.11   3.12   4.01   4.01   4.66
          5.89   7.42   7.42   7.72   7.74   7.94   8.23   8.89   9.30   9.30
          9.56   9.62   9.76  10.80  10.95  10.95  13.28  13.52  13.52  14.09
         14.72  14.72  15.07  15.36  15.61  15.82  16.02  16.05  18.02  18.69
         18.72  18.73  19.58  19.58  19.92  20.17  21.04  21.05  21.46  21.52
         27.40  27.42  27.47  28.15  28.76  33.45  33.47  37.24  42.27  44.16
         44.19  50.72  55.95  56.01  58.69  60.74  62.53  76.18  76.25  81.05
         81.74  81.78  85.87  92.71
 246  1 -15.75 -15.38 -15.37 -15.15 -12.57 -12.33 -12.32 -11.91  -8.12  -7.82
         -7.82  -7.30  -7.14  -7.10  -7.10  -6.77  -3.77  -3.44  -3.40  -3.39
         -2.38  -2.38  -2.10  -2.09  -2.07  -1.61  -1.57  -1.57   2.11   2.11
          2.65   2.81   2.96   3.49   3.84   3.85   3.94   4.34   4.55   4.55
          5.34   6.55   6.57   6.82   6.82   6.98   7.57   7.88   8.35   8.47
          8.47   8.72   9.00   9.02   9.44   9.45  14.88  15.01  15.02  15.87
         15.94  15.94  16.12  16.38  16.41  16.43  16.93  16.96  17.73  18.64
         18.65  18.73  19.04  19.05  19.43  19.66  20.16  20.17  20.78  21.32
         28.24  28.25  28.34  29.27  29.79  31.02  31.03  31.92  44.81  47.42
         47.46  52.29  57.79  57.88  60.92  61.82  66.50  77.26  77.31  80.59
         82.59  82.61  88.15  93.58
 247  1 -15.52 -15.29 -15.28 -15.28 -12.63 -12.63 -12.63 -12.39  -7.27  -7.25
         -7.25  -7.00  -7.00  -7.00  -6.86  -6.86  -4.17  -3.86  -3.86  -3.86
         -2.31  -2.31  -2.29  -2.19  -2.19  -2.02  -2.02  -2.01   2.98   2.98
          2.99   3.15   4.24   4.24   4.25   4.39   4.39   5.29   5.38   5.38
          5.38   6.02   6.02   6.03   6.16   6.17   6.17   7.19   7.19   7.41
          7.41   7.41   8.50   8.50   8.50   8.63  16.17  16.31  16.32  16.32
         16.94  16.94  17.11  17.11  17.11  17.48  17.48  17.51  18.83  18.84
         18.84  19.23  19.23  19.25  19.47  19.47  19.51  19.90  19.90  21.52
         29.06  29.06  29.07  29.85  29.85  29.85  29.92  29.92  58.79  58.88
         58.88  61.64  66.16  66.16  66.17  71.30  71.36  71.36  75.46  75.46
         94.44  94.64  94.64 106.86
 248  1 -15.51 -15.30 -15.29 -15.28 -12.63 -12.63 -12.62 -12.39  -7.26  -7.26
         -7.25  -7.00  -6.99  -6.99  -6.87  -6.86  -4.18  -3.86  -3.86  -3.85
         -2.29  -2.29  -2.29  -2.20  -2.18  -2.02  -2.02  -2.02   2.98   2.99
          3.00   3.14   4.24   4.25   4.25   4.39   4.40   5.27   5.37   5.38
          5.38   6.00   6.00   6.01   6.15   6.16   6.16   7.18   7.21   7.42
          7.42   7.45   8.48   8.50   8.51   8.65  16.20  16.29  16.32  16.32
         16.92  16.94  17.12  17.12  17.14  17.47  17.48  17.48  18.77  18.81
         18.83  19.23  19.24  19.24  19.49  19.50  19.50  19.89  19.90  21.59
         29.01  29.02  29.05  29.82  29.87  29.89  29.92  29.93  58.83  58.86
         58.98  61.63  65.91  66.06  66.31  71.42  71.45  71.54  74.97  75.30
         94.42  94.46  94.49 106.59
 249  1 -15.74 -15.38 -15.37 -15.15 -12.57 -12.33 -12.32 -11.92  -8.12  -7.83
         -7.82  -7.31  -7.14  -7.10  -7.09  -6.77  -3.78  -3.45  -3.39  -3.38
         -2.38  -2.37  -2.11  -2.09  -2.06  -1.61  -1.57  -1.57   2.12   2.13
          2.64   2.82   2.95   3.48   3.83   3.84   3.92   4.33   4.54   4.55
          5.35   6.55   6.55   6.79   6.81   6.97   7.58   7.87   8.38   8.45
          8.47   8.71   9.01   9.05   9.45   9.47  14.89  14.99  15.02  15.86
         15.94  15.96  16.12  16.38  16.43  16.43  16.92  16.93  17.71  18.64
         18.66  18.75  19.01  19.03  19.42  19.65  20.17  20.17  20.77  21.38
         28.22  28.26  28.30  29.27  29.79  31.04  31.05  31.88  44.83  47.42
         47.46  52.27  57.87  57.89  60.80  61.68  66.31  77.36  77.41  80.64
         82.50  82.55  87.71  93.58
 250  1 -15.92 -15.49 -15.48 -15.12 -12.22 -11.82 -11.81 -11.30  -9.03  -8.64
         -8.64  -8.14  -7.26  -7.18  -7.17  -6.72  -3.45  -3.19  -2.96  -2.95
         -2.24  -2.23  -1.83  -1.79  -1.21  -1.01  -0.83  -0.82   0.97   0.99
          1.53   1.75   2.35   2.61   2.79   3.11   3.12   3.99   4.00   4.66
          5.90   7.39   7.41   7.73   7.73   7.95   8.23   8.92   9.28   9.30
          9.58   9.62   9.75  10.81  10.95  10.97  13.29  13.51  13.53  14.09
         14.72  14.73  15.08  15.38  15.60  15.82  16.01  16.02  18.05  18.68
         18.70  18.73  19.55  19.58  19.91  20.16  21.04  21.05  21.50  21.51
         27.40  27.43  27.44  28.14  28.76  33.46  33.47  37.19  42.29  44.15
         44.17  50.63  56.02  56.08  58.71  60.63  62.33  76.06  76.09  81.11
         81.77  81.84  85.92  92.51
 251  1 -16.02 -15.55 -15.55 -15.12 -11.82 -11.31 -11.30 -10.71  -9.72  -9.33
         -9.32  -8.88  -7.32  -7.22  -7.21  -6.71  -3.54  -2.95  -2.90  -2.89
         -1.65  -1.64  -1.43  -1.19  -0.39  -0.19  -0.18  -0.15   0.15   0.16
          0.46   0.95   1.22   1.64   2.09   2.10   2.77   4.05   4.06   5.02
          6.29   7.72   7.73   8.14   8.68   8.69   9.13   9.44  10.04  10.24
         10.25  10.72  11.60  11.67  11.68  12.24  12.36  12.79  12.92  12.93
         13.50  13.74  13.74  14.27  14.72  14.93  14.94  15.27  17.95  18.78
         18.79  19.54  20.23  20.25  20.32  20.85  21.73  21.74  21.90  21.99
         26.32  26.59  26.60  26.69  27.93  35.65  35.67  43.90  48.27  48.47
         48.62  52.69  55.02  55.07  60.92  61.62  61.82  68.15  68.20  77.16
         80.81  80.87  82.01  83.32
 252  1 -16.02 -15.55 -15.55 -15.12 -11.82 -11.31 -11.30 -10.71  -9.72  -9.33
         -9.32  -8.88  -7.32  -7.22  -7.21  -6.71  -3.54  -2.95  -2.90  -2.89
         -1.65  -1.64  -1.43  -1.19  -0.39  -0.19  -0.18  -0.15   0.15   0.16
          0.46   0.95   1.22   1.64   2.09   2.10   2.77   4.05   4.06   5.02
          6.29   7.72   7.73   8.14   8.68   8.69   9.13   9.44  10.04  10.24
         10.25  10.72  11.60  11.67  11.68  12.24  12.35  12.79  12.92  12.93
         13.50  13.74  13.74  14.27  14.72  14.93  14.94  15.27  17.95  18.78
         18.79  19.54  20.23  20.25  20.32  20.85  21.73  21.74  21.90  21.99
         26.32  26.59  26.60  26.69  27.93  35.65  35.67  43.90  48.27  48.47
         48.62  52.69  55.02  55.07  60.92  61.62  61.82  68.15  68.20  77.16
         80.81  80.87  82.01  83.32
 253  1 -15.92 -15.49 -15.48 -15.12 -12.22 -11.82 -11.81 -11.30  -9.03  -8.64
         -8.64  -8.14  -7.26  -7.18  -7.17  -6.72  -3.45  -3.19  -2.96  -2.95
         -2.24  -2.23  -1.83  -1.79  -1.21  -1.01  -0.83  -0.82   0.97   0.99
          1.53   1.75   2.35   2.61   2.79   3.11   3.12   3.99   4.00   4.66
          5.90   7.39   7.41   7.73   7.73   7.95   8.23   8.92   9.28   9.30
          9.58   9.62   9.75  10.81  10.95  10.97  13.29  13.51  13.53  14.09
         14.72  14.73  15.08  15.38  15.60  15.82  16.01  16.02  18.05  18.68
         18.70  18.73  19.55  19.58  19.91  20.16  21.04  21.05  21.50  21.51
         27.40  27.43  27.44  28.14  28.76  33.46  33.47  37.19  42.29  44.15
         44.17  50.63  56.02  56.08  58.71  60.63  62.33  76.06  76.09  81.11
         81.77  81.84  85.92  92.51
 254  1 -15.74 -15.38 -15.37 -15.15 -12.57 -12.33 -12.32 -11.92  -8.12  -7.83
         -7.82  -7.31  -7.14  -7.10  -7.09  -6.77  -3.78  -3.45  -3.39  -3.38
         -2.38  -2.37  -2.11  -2.09  -2.06  -1.61  -1.57  -1.57   2.12   2.13
          2.64   2.82   2.95   3.48   3.83   3.84   3.92   4.33   4.54   4.55
          5.35   6.55   6.55   6.79   6.81   6.97   7.58   7.87   8.38   8.45
          8.47   8.71   9.01   9.05   9.45   9.47  14.89  14.99  15.02  15.86
         15.94  15.96  16.12  16.38  16.43  16.43  16.92  16.93  17.71  18.64
         18.66  18.75  19.01  19.03  19.42  19.65  20.17  20.17  20.77  21.38
         28.22  28.26  28.30  29.27  29.79  31.04  31.05  31.88  44.83  47.42
         47.46  52.27  57.87  57.89  60.80  61.68  66.31  77.36  77.41  80.64
         82.50  82.55  87.71  93.58
 255  1 -15.51 -15.30 -15.29 -15.28 -12.63 -12.63 -12.62 -12.39  -7.26  -7.26
         -7.25  -7.00  -6.99  -6.99  -6.87  -6.86  -4.18  -3.86  -3.86  -3.85
         -2.29  -2.29  -2.29  -2.20  -2.18  -2.02  -2.02  -2.02   2.98   2.99
          3.00   3.14   4.24   4.25   4.25   4.39   4.40   5.27   5.37   5.38
          5.38   6.00   6.00   6.01   6.15   6.16   6.16   7.18   7.21   7.42
          7.42   7.45   8.48   8.50   8.51   8.65  16.20  16.29  16.32  16.32
         16.92  16.94  17.12  17.12  17.14  17.47  17.48  17.48  18.77  18.81
         18.83  19.23  19.24  19.24  19.49  19.50  19.50  19.89  19.90  21.59
         29.01  29.02  29.05  29.82  29.87  29.89  29.92  29.93  58.83  58.86
         58.98  61.63  65.91  66.06  66.31  71.42  71.45  71.54  74.97  75.30
         94.42  94.46  94.49 106.59
 256  1 -15.51 -15.30 -15.29 -15.28 -12.63 -12.63 -12.62 -12.39  -7.26  -7.26
         -7.25  -7.00  -6.99  -6.99  -6.87  -6.86  -4.18  -3.86  -3.86  -3.85
         -2.29  -2.29  -2.29  -2.20  -2.18  -2.02  -2.02  -2.02   2.98   2.99
          3.00   3.14   4.24   4.25   4.25   4.39   4.40   5.27   5.37   5.38
          5.38   6.00   6.00   6.01   6.15   6.16   6.16   7.18   7.21   7.42
          7.42   7.45   8.48   8.50   8.51   8.65  16.20  16.29  16.32  16.32
         16.92  16.94  17.12  17.12  17.14  17.47  17.48  17.48  18.77  18.81
         18.83  19.23  19.24  19.24  19.49  19.50  19.50  19.89  19.90  21.59
         29.01  29.02  29.05  29.82  29.87  29.89  29.92  29.93  58.83  58.86
         58.98  61.63  65.91  66.06  66.31  71.42  71.45  71.54  74.97  75.30
         94.42  94.46  94.49 106.59
siesta: Fermi energy =      -5.338347 eV

siesta: Program's energy decomposition (eV):
siesta: Ebs     =      -344.347856
siesta: Eions   =      1510.441798
siesta: Ena     =       465.211127
siesta: Ekin    =       325.274990
siesta: Enl     =       111.027817
siesta: DEna    =         5.075862
siesta: DUscf   =         1.529709
siesta: DUext   =         0.000000
siesta: Exc     =      -259.648989
siesta: eta*DQ  =         0.000000
siesta: Emadel  =         0.000000
siesta: Emeta   =         0.000000
siesta: Emolmec =         0.000000
siesta: Ekinion =         0.000000
siesta: Eharris =      -861.971321
siesta: Etot    =      -861.971282
siesta: FreeEng =      -861.971282

siesta: Final energy (eV):
siesta:  Band Struct. =    -344.347856
siesta:       Kinetic =     325.274990
siesta:       Hartree =      57.789902
siesta:    Ext. field =       0.000000
siesta:   Exch.-corr. =    -259.648989
siesta:  Ion-electron =    -446.653427
siesta:       Ion-ion =    -538.733757
siesta:       Ekinion =       0.000000
siesta:         Total =    -861.971282

siesta: Stress tensor (static) (eV/Ang**3):
siesta:    -0.000521    0.000491    0.000489
siesta:     0.000491   -0.000521    0.000490
siesta:     0.000489    0.000490   -0.000521

siesta: Constrained stress tensor (static) (eV/Ang**3):
siesta:    -0.000521    0.000491    0.000489
siesta:     0.000491   -0.000521    0.000490
siesta:     0.000489    0.000490   -0.000521

siesta: Cell volume =        160.940154 Ang**3

siesta: Pressure (static):
siesta:                Solid            Molecule  Units
siesta:           0.00000568          0.00000917  Ry/Bohr**3
siesta:           0.00052124          0.00084190  eV/Ang**3
siesta:           0.83513474          1.34888059  kBar
(Free)E+ p_basis*V_orbitals  =        -852.997678
(Free)Eharris+ p_basis*V_orbitals  =        -852.997043

* Maximum dynamic memory allocated : Node    0 =   101 MB

* Maximum memory occured during init_pulay_arrrays            

timer: CPU execution times:
timer:  Routine       Calls   Time/call    Tot.time        %
timer:  siesta            1    3120.400    3120.400   100.00
timer:  Setup             1       0.170       0.170     0.01
timer:  bands             3       0.546       1.638     0.05
timer:  writewave         3       0.008       0.025     0.00
timer:  KSV_init          1       0.000       0.000     0.00
timer:  IterMD           18     173.246    3118.427    99.94
timer:  hsparse          18       0.275       4.946     0.16
timer:  overlap          18       0.128       2.304     0.07
timer:  IterSCF          89      30.603    2723.650    87.29
timer:  kinefsm          36       0.134       4.811     0.15
timer:  nlefsm           36       5.519     198.667     6.37
timer:  DHSCF           107      10.504    1123.909    36.02
timer:  DHSCF1           18       0.054       0.978     0.03
timer:  DHSCF2           18       3.296      59.321     1.90
timer:  REORD           678       0.000       0.095     0.00
timer:  POISON          125       0.005       0.599     0.02
timer:  DHSCF3          107       8.788     940.307    30.13
timer:  rhoofd          107       3.916     419.030    13.43
timer:  cellXC          107       0.033       3.541     0.11
timer:  vmat            107       4.832     516.972    16.57
timer:  MolMec           36       0.000       0.001     0.00
timer:  diagon           89      19.940    1774.700    56.87
timer:  c-eigval      25501       0.018     469.535    15.05
timer:  c-buildHS     25501       0.012     315.206    10.10
timer:  cdiag         50902       0.009     453.953    14.55
timer:  cdiag1        50902       0.001      39.669     1.27
timer:  cdiag2        50902       0.002     124.222     3.98
timer:  cdiag3        50902       0.006     281.435     9.02
timer:  cdiag4        50902       0.000       6.051     0.19
timer:  c-eigvec      25401       0.024     615.038    19.71
timer:  c-buildD      25400       0.027     689.804    22.11
timer:  DHSCF4           18       6.848     123.257     3.95
timer:  dfscf            18       6.192     111.458     3.57
timer:  overfsm          18       0.127       2.280     0.07
timer:  optical           1       0.000       0.000     0.00
  

elaps: ELAPSED times:
elaps:  Routine       Calls   Time/call    Tot.time        %
elaps:  siesta            1    3120.937    3120.937   100.00
elaps:  Setup             1       0.175       0.175     0.01
elaps:  bands             3       0.546       1.638     0.05
elaps:  writewave         3       0.008       0.025     0.00
elaps:  KSV_init          1       0.000       0.000     0.00
elaps:  IterMD           18     173.275    3118.946    99.94
elaps:  hsparse          18       0.275       4.948     0.16
elaps:  overlap          18       0.128       2.305     0.07
elaps:  IterSCF          89      30.608    2724.105    87.28
elaps:  kinefsm          36       0.134       4.812     0.15
elaps:  nlefsm           36       5.519     198.694     6.37
elaps:  DHSCF           107      10.506    1124.156    36.02
elaps:  DHSCF1           18       0.057       1.026     0.03
elaps:  DHSCF2           18       3.296      59.330     1.90
elaps:  REORD           678       0.000       0.096     0.00
elaps:  POISON          125       0.005       0.598     0.02
elaps:  DHSCF3          107       8.790     940.478    30.13
elaps:  rhoofd          107       3.917     419.082    13.43
elaps:  cellXC          107       0.033       3.541     0.11
elaps:  vmat            107       4.833     517.092    16.57
elaps:  MolMec           36       0.000       0.001     0.00
elaps:  diagon           89      19.943    1774.932    56.87
elaps:  c-eigval      25501       0.018     469.582    15.05
elaps:  c-buildHS     25501       0.012     315.447    10.11
elaps:  cdiag         50902       0.009     453.801    14.54
elaps:  cdiag1        50902       0.001      39.754     1.27
elaps:  cdiag2        50902       0.002     124.290     3.98
elaps:  cdiag3        50902       0.006     281.536     9.02
elaps:  cdiag4        50902       0.000       6.045     0.19
elaps:  c-eigvec      25401       0.024     615.101    19.71
elaps:  c-buildD      25400       0.027     690.126    22.11
elaps:  DHSCF4           18       6.849     123.279     3.95
elaps:  dfscf            18       6.193     111.478     3.57
elaps:  overfsm          18       0.127       2.280     0.07
elaps:  optical           1       0.000       0.000     0.00
  
>> End of run:  14-MAY-2013  12:03:39
