Siesta Version:                                        siesta-3.2
Architecture  : i686-apple-darwin10.8.0--unknown
Compiler flags: g95 -g -O2
SERIAL version

* Running in serial mode
>> Start of run:  13-MAY-2013  11:39:17

                           ***********************       
                           *  WELCOME TO SIESTA  *       
                           ***********************       

reinit: Reading from standard input
************************** Dump of input data file ****************************
# FDF for silicon
SystemName             silicon          # Descriptive name of the system
SystemLabel            si          # Short name for naming files
NumberOfAtoms 8
NumberOfSpecies 1
%block ChemicalSpeciesLabel
1 14 Si
%endblock ChemicalSpeciesLabel
LatticeConstant  5.10 Ang
##Basis set Definition##
PAO.BasisType          split        # Type of PAO basis set
PAO.EnergyShift        50 meV
PAO.BasisSize          DZP          # (DZP) Double-z + polarization
#%block LatticeVectors
#0.500 0.500 0.000
#0.500 0.000 0.500
#0.000 0.500 0.500
#%endblock LatticeVectors
AtomicCoordinatesFormat NotScaledCartesianAng
%block AtomicCoordinatesAndAtomicSpecies
	0.00000000	0.00000000	0.00000000  1 Si  1
	1.36000000	1.36000000	1.36000000  1 Si  2
	2.72000000	2.72000000	0.00000000  1 Si  3
	4.08000000	4.08000000	1.36000000  1 Si  4
	2.72000000	0.00000000	2.72000000  1 Si  5
	4.08000000	1.36000000	4.08000000  1 Si  6
	0.00000000	2.72000000	2.72000000  1 Si  7
	1.36000000	4.08000000	4.08000000  1 Si  8
%endblock AtomicCoordinatesAndAtomicSpecies
MeshCutoff 100.0 Ry # 100, 120, 180, 260
kgrid_cutoff 35.0 Bohr # 30, 35, 40, 45
DM.Mixingweight  0.3
DM.NumberPulay    3
DM.Tolerance      1.d-3
DM.UseSaveDM      true
ElectronicTemperature 25 meV
SolutionMethod    diagon
XC.functional      GGA	    # Generalized Gradient Approximation
XC.authors        PBE          # Perdew-Burke-Ernzerhof
SpinPolarized     false
MD.TypeOfRun           CG           # Type of dynamics:
MD.VariableCell        true
MD.NumCGsteps          100          # Number of CG steps for coordinate optimization
MD.MaxCGDispl          0.2 Bohr     # Maximum atomic displacement
                                    #   in one CG step (Bohr)
MD.MaxForceTol         0.04 eV/Ang  # Tolerance in the maximum
                                    #   atomic force (Ry/Bohr)
				
##Output Specification##
WriteMDhistory         true         # Trajectory information
WriteCoorStep          true
WriteCoorXmol          true
WriteMDXmol            true
WriteEigenvalues true
WriteKbands      true
WriteBands       true
WriteWaveFunctions true
WriteMullikenPoP   1
%block BandLines
1	1.000	1.000 1.000 L
25	0.000	0.000	0.000 \Gamma
30	2.000	0.000	0.000 X
10	2.000	0.500	0.500 U
35	0.000	0.000	0.000 \Gamma
%endblock BandLines
%block WaveFuncKPoints
0.0 0.0 0.0 from 1 to 50 # > 16 = 4/2*8 (Valenzelektronen/2, Atomzahl ...)
%endblock WaveFuncKpoints
************************** End of input data file *****************************

reinit: -----------------------------------------------------------------------
reinit: System Name: silicon
reinit: -----------------------------------------------------------------------
reinit: System Label: si                                                          
reinit: -----------------------------------------------------------------------

initatom: Reading input for the pseudopotentials and atomic orbitals ----------
 Species number:  1  Label: Si Atomic number: 14
Ground state valence configuration:   3s02  3p02
Reading pseudopotential information in formatted form from Si.psf

Valence configuration for pseudopotential generation:
3s( 2.00) rc: 1.75
3p( 2.00) rc: 1.94
3d( 0.00) rc: 2.09
4f( 0.00) rc: 2.09
For Si, standard SIESTA heuristics set lmxkb to 3
 (one more than the basis l, including polarization orbitals).
Use PS.lmax or PS.KBprojectors blocks to override.

<basis_specs>
===============================================================================
Si                   Z=  14    Mass=  28.090        Charge= 0.17977+309
Lmxo=1 Lmxkb= 3    BasisType=split      Semic=F
L=0  Nsemic=0  Cnfigmx=3
          n=1  nzeta=2  polorb=0
            splnorm:   0.15000    
               vcte:    0.0000    
               rinn:    0.0000    
                rcs:    0.0000      0.0000    
            lambdas:    1.0000      1.0000    
L=1  Nsemic=0  Cnfigmx=3
          n=1  nzeta=2  polorb=1
            splnorm:   0.15000    
               vcte:    0.0000    
               rinn:    0.0000    
                rcs:    0.0000      0.0000    
            lambdas:    1.0000      1.0000    
-------------------------------------------------------------------------------
L=0  Nkbl=1  erefs: 0.17977+309
L=1  Nkbl=1  erefs: 0.17977+309
L=2  Nkbl=1  erefs: 0.17977+309
L=3  Nkbl=1  erefs: 0.17977+309
===============================================================================
</basis_specs>

atom: Called for Si                    (Z =  14)

read_vps: Pseudopotential generation method:
read_vps: ATM3      Troullier-Martins                       
Total valence charge:    4.00000

read_vps: Pseudopotential includes a core correction:
read_vps: Pseudo-core for xc-correction

xc_check: Exchange-correlation functional:
xc_check: GGA Perdew, Burke & Ernzerhof 1996
V l=0 = -2*Zval/r beyond r=  2.0104
V l=1 = -2*Zval/r beyond r=  2.0873
V l=2 = -2*Zval/r beyond r=  2.1670
V l=3 = -2*Zval/r beyond r=  2.1670
All V_l potentials equal beyond r=  2.0613
This should be close to max(r_c) in ps generation
All pots = -2*Zval/r beyond r=  2.1670

VLOCAL1: 99.0% of the norm of Vloc inside     10.216 Ry
VLOCAL1: 99.9% of the norm of Vloc inside     23.282 Ry
atom: Maximum radius for 4*pi*r*r*local-pseudopot. charge    2.45560
atom: Maximum radius for r*vlocal+2*Zval:    2.14012
GHOST: No ghost state for L =  0
GHOST: No ghost state for L =  1
GHOST: No ghost state for L =  2
GHOST: No ghost state for L =  3

KBgen: Kleinman-Bylander projectors: 
   l= 0   rc=  2.306811   el= -0.791441   Ekb=  5.289775   kbcos=  0.291595
   l= 1   rc=  2.394965   el= -0.300632   Ekb=  1.944256   kbcos=  0.287657
   l= 2   rc=  2.549439   el=  0.001958   Ekb= -1.788485   kbcos= -0.056492
   l= 3   rc=  2.782581   el=  0.003046   Ekb= -0.472620   kbcos= -0.006203

KBgen: Total number of  Kleinman-Bylander projectors:   16
atom: -------------------------------------------------------------------------

atom: SANKEY-TYPE ORBITALS:
atom: Selected multiple-zeta basis: split     

SPLIT: Orbitals with angular momentum L= 0

SPLIT: Basis orbitals for state 3s

SPLIT: PAO cut-off radius determined from an
SPLIT: energy shift=  0.003675 Ry

   izeta = 1
                 lambda =    1.000000
                     rc =    6.116033
                 energy =   -0.788343
                kinetic =    0.528041
    potential(screened) =   -1.316383
       potential(ionic) =   -3.704743

   izeta = 2
                 rmatch =    4.530823
              splitnorm =    0.150000
                 energy =   -0.692892
                kinetic =    0.848665
    potential(screened) =   -1.541557
       potential(ionic) =   -4.044985

SPLIT: Orbitals with angular momentum L= 1

SPLIT: Basis orbitals for state 3p

SPLIT: PAO cut-off radius determined from an
SPLIT: energy shift=  0.003675 Ry

   izeta = 1
                 lambda =    1.000000
                     rc =    7.853192
                 energy =   -0.297152
                kinetic =    0.797948
    potential(screened) =   -1.095101
       potential(ionic) =   -3.275753

   izeta = 2
                 rmatch =    5.330310
              splitnorm =    0.150000
                 energy =   -0.228170
                kinetic =    1.148579
    potential(screened) =   -1.376749
       potential(ionic) =   -3.739005

POLgen: Perturbative polarization orbital with L=  2

POLgen: Polarization orbital for state 3p

   izeta = 1
                     rc =    7.853192
                 energy =    0.340222
                kinetic =    1.096718
    potential(screened) =   -0.756496
       potential(ionic) =   -2.716423
atom: Total number of Sankey-type orbitals: 13

atm_pop: Valence configuration (for local Pseudopot. screening):
 3s( 2.00)                                                            
 3p( 2.00)                                                            
Vna: chval, zval:    4.00000   4.00000

Vna:  Cut-off radius for the neutral-atom potential:   7.853192
comcore: Pseudo-core radius Rcore=  2.999314

atom: _________________________________________________________________________

prinput: Basis input ----------------------------------------------------------

PAO.BasisType split     

%block ChemicalSpeciesLabel
    1   14 Si                      # Species index, atomic number, species label
%endblock ChemicalSpeciesLabel

%block PAO.Basis                 # Define Basis set
Si                    2                    # Species label, number of l-shells
 n=3   0   2                         # n, l, Nzeta 
   6.116      4.531   
   1.000      1.000   
 n=3   1   2 P   1                   # n, l, Nzeta, Polarization, NzetaPol
   7.853      5.330   
   1.000      1.000   
%endblock PAO.Basis

prinput: ----------------------------------------------------------------------

coor:   Atomic-coordinates input format  =     Cartesian coordinates
coor:                                          (in Angstroms)

siesta: Atomic coordinates (Bohr) and species
siesta:      0.00000   0.00000   0.00000  1        1
siesta:      2.57003   2.57003   2.57003  1        2
siesta:      5.14006   5.14006   0.00000  1        3
siesta:      7.71009   7.71009   2.57003  1        4
siesta:      5.14006   0.00000   5.14006  1        5
siesta:      7.71009   2.57003   7.71009  1        6
siesta:      0.00000   5.14006   5.14006  1        7
siesta:      2.57003   7.71009   7.71009  1        8

siesta: System type = bulk      

initatomlists: Number of atoms, orbitals, and projectors:      8   104   128

siesta: ******************** Simulation parameters ****************************
siesta:
siesta: The following are some of the parameters of the simulation.
siesta: A complete list of the parameters used, including default values,
siesta: can be found in file out.fdf
siesta:
redata: Non-Collinear-spin run           =     F
redata: SpinPolarized (Up/Down) run      =     F
redata: Number of spin components        =     1
redata: Long output                      =     F
redata: Number of Atomic Species         =        1
redata: Charge density info will appear in .RHO file
redata: Write Mulliken Pop.              =     Atomic and Orbital charges
redata: Mesh Cutoff                      =   100.0000  Ry
redata: Net charge of the system         =     0.0000 |e|
redata: Max. number of SCF Iter          =       50
redata: Performing Pulay mixing using    =     3 iterations
redata: Mix DM in first SCF step ?       =     F
redata: Write Pulay info on disk?        =     F
redata: Discard 1st Pulay DM after  kick =     F
redata: New DM Mixing Weight             =     0.3000
redata: New DM Occupancy tolerance       = 0.000000000001
redata: No kicks to SCF
redata: DM Mixing Weight for Kicks       =     0.5000
redata: DM Tolerance for SCF             =     0.001000
redata: Require Energy convergence for SCF =     F
redata: DM Energy tolerance for SCF      =     0.000100 eV
redata: Require Harris convergence for SCF =     F
redata: DM Harris energy tolerance for SCF =     0.000100 eV
redata: Using Saved Data (generic)   =     F
redata: Use continuation files for DM    =     T
redata: Neglect nonoverlap interactions  =     F
redata: Method of Calculation            =     Diagonalization
redata: Divide and Conquer               =     T
redata: Electronic Temperature           =     0.0018  Ry
redata: Fix the spin of the system       =     F
redata: Dynamics option                  =     CG coord. optimization
redata: Variable cell                    =     T
redata: Use continuation files for CG    =     F
redata: Max atomic displ per move        =     0.2000  Bohr
redata: Maximum number of CG moves       =      100
redata: Force tolerance                  =     0.0016  Ry/Bohr
redata: Stress tolerance                 =     1.0000  GPa
redata: ***********************************************************************
Total number of electrons:    32.000000
Total ionic charge:    32.000000
 Kpoints in:  256 . Kpoints trimmed:  256

siesta: k-grid: Number of k-points =   256
siesta: k-grid: Cutoff (effective) =    20.400 Ang
siesta: k-grid: Supercell and displacements
siesta: k-grid:    0   8   0      0.500
siesta: k-grid:    0   0   8      0.500
siesta: k-grid:    8   0   0      0.500
Naive supercell factors:     5    5    5

superc: Internal auxiliary supercell:     5 x     5 x     5  =     125
superc: Number of atoms, orbitals, and projectors:   1000  13000  16000

* Maximum dynamic memory allocated =     2 MB

siesta:                 ==============================
                            Begin CG move =      0
                        ==============================

outcoor: Atomic coordinates (Ang):                          
    0.00000000    0.00000000    0.00000000   1       1  Si
    1.36000000    1.36000000    1.36000000   1       2  Si
    2.72000000    2.72000000    0.00000000   1       3  Si
    4.08000000    4.08000000    1.36000000   1       4  Si
    2.72000000    0.00000000    2.72000000   1       5  Si
    4.08000000    1.36000000    4.08000000   1       6  Si
    0.00000000    2.72000000    2.72000000   1       7  Si
    1.36000000    4.08000000    4.08000000   1       8  Si

superc: Internal auxiliary supercell:     5 x     5 x     5  =     125
superc: Number of atoms, orbitals, and projectors:   1000  13000  16000

outcell: Unit cell vectors (Ang):
        5.100000    0.000000    0.000000
        0.000000    5.100000    0.000000
        0.000000    0.000000    5.100000

outcell: Cell vector modules (Ang)   :    5.100000    5.100000    5.100000
outcell: Cell angles (23,13,12) (deg):     90.0000     90.0000     90.0000
outcell: Cell volume (Ang**3)        :    132.6510
New_DM. Step:     1
Initializing Density Matrix...

InitMesh: MESH =    32 x    32 x    32 =       32768
InitMesh: Mesh cutoff (required, used) =   100.000   108.808 Ry

* Maximum dynamic memory allocated =    79 MB

stepf: Fermi-Dirac step function

siesta: Program's energy decomposition (eV):
siesta: Ebs     =      -378.616108
siesta: Eions   =      1510.441798
siesta: Ena     =       455.130393
siesta: Ekin    =       288.667622
siesta: Enl     =       166.805752
siesta: DEna    =         0.000001
siesta: DUscf   =         0.000000
siesta: DUext   =         0.000000
siesta: Exc     =      -457.041276
siesta: eta*DQ  =         0.000000
siesta: Emadel  =         0.000000
siesta: Emeta   =         0.000000
siesta: Emolmec =         0.000000
siesta: Ekinion =         0.000000
siesta: Eharris =     -1025.171276
siesta: Etot    =     -1056.879306
siesta: FreeEng =     -1056.879306

siesta: iscf   Eharris(eV)      E_KS(eV)   FreeEng(eV)   dDmax  Ef(eV)
siesta:    1    -1025.1713    -1056.8793    -1056.8793  1.6840 -5.7945
timer: Routine,Calls,Time,% = IterSCF        1      37.416  97.58
elaps: Routine,Calls,Wall,% = IterSCF        1      37.427  97.52
siesta:    2    -1024.7938    -1024.4985    -1024.5002  0.1946 -5.4920
siesta:    3    -1024.6716    -1026.9184    -1026.9197  0.1265 -5.5532
siesta:    4    -1024.6668    -1025.0330    -1025.0345  0.0261 -5.5549
siesta:    5    -1024.6663    -1024.7123    -1024.7137  0.0069 -5.5558
siesta:    6    -1024.6661    -1024.7352    -1024.7366  0.0057 -5.5578
siesta:    7    -1024.6661    -1024.7262    -1024.7276  0.0042 -5.5582
siesta:    8    -1024.6661    -1024.6986    -1024.7001  0.0020 -5.5580
siesta:    9    -1024.6661    -1024.6821    -1024.6836  0.0010 -5.5578

siesta: E_KS(eV) =            -1024.6689

siesta: E_KS - E_eggbox =     -1024.6689

siesta: Atomic forces (eV/Ang):
----------------------------------------
   Tot   -0.001120   -0.001124   -0.001133
----------------------------------------
   Max    3.961357
   Res    2.648862    sqrt( Sum f_i^2 / 3N )
----------------------------------------
   Max    3.961357    constrained

Stress-tensor-Voigt (kbar):     -372.09     -372.09     -372.09      103.08      103.08      103.08
(Free)E + p*V (eV/cell)     -993.8635
Target enthalpy (eV/cell)    -1024.6703

siesta: Stress tensor (static) (eV/Ang**3):
        -0.232239    0.064336    0.064335
         0.064336   -0.232239    0.064335
         0.064335    0.064335   -0.232239

siesta: Pressure (static):        372.09241456  kBar

siesta: Stress tensor (total) (eV/Ang**3):
        -0.232239    0.064336    0.064335
         0.064336   -0.232239    0.064335
         0.064335    0.064335   -0.232239

siesta: Pressure (total):        372.09241456  kBar

mulliken: Mulliken Atomic and Orbital Populations:

Species: Si                  
Atom  Qatom  Qorb
               3s      3s      3py     3pz     3px     3py     3pz     3px     
               3Pdxy   3Pdyz   3Pdz2   3Pdxz   3Pdx2-y2
   1  4.234   0.234   0.819   0.066   0.066   0.066   0.717   0.717   0.717
              0.179   0.179   0.147   0.179   0.147
   2  3.868   0.630   0.593   0.070   0.070   0.070   0.621   0.621   0.621
              0.136   0.136   0.081   0.136   0.081
   3  3.922   0.501   0.654   0.019   0.116   0.019   0.677   0.620   0.677
              0.157   0.144   0.085   0.144   0.108
   4  4.044   0.378   0.722   0.079  -0.032   0.079   0.678   0.742   0.678
              0.157   0.162   0.136   0.162   0.101
   5  3.922   0.501   0.654   0.116   0.019   0.019   0.620   0.677   0.677
              0.144   0.144   0.103   0.157   0.091
   6  4.044   0.378   0.722  -0.032   0.079   0.079   0.742   0.678   0.678
              0.162   0.162   0.110   0.157   0.128
   7  3.922   0.501   0.654   0.019   0.019   0.116   0.677   0.677   0.620
              0.144   0.157   0.103   0.144   0.091
   8  4.044   0.378   0.722   0.079   0.079  -0.032   0.678   0.678   0.742
              0.162   0.157   0.110   0.162   0.128

mulliken: Qtot =       32.000

cgvc: No target stress found, assuming hydrostatic MD.TargetPressure.

cgvc: Target stress (kBar)
cgvc:        -0.000       0.000       0.000
cgvc:         0.000      -0.000       0.000
cgvc:         0.000       0.000      -0.000

* Maximum dynamic memory allocated =    80 MB

siesta:                 ==============================
                            Begin CG move =      1
                        ==============================

outcoor: Atomic coordinates (Ang):                          
    0.01887938    0.01887934    0.01887928   1       1  Si
    1.36764732    1.36764732    1.36764731   1       2  Si
    2.73179924    2.73179921    0.00642883   1       3  Si
    4.07492494    4.07492496    1.36922901   1       4  Si
    2.73179926    0.00642874    2.73179929   1       5  Si
    4.07492503    1.36922899    4.07492492   1       6  Si
    0.00642877    2.73179927    2.73179927   1       7  Si
    1.36922897    4.07492503    4.07492496   1       8  Si
 Kpoints in:  256 . Kpoints trimmed:  256

siesta: k-grid: Number of k-points =   256
siesta: k-grid: Cutoff (effective) =    20.556 Ang
siesta: k-grid: Supercell and displacements
siesta: k-grid:    0   0   8      0.500
siesta: k-grid:    8   0   0      0.500
siesta: k-grid:    0   8   0      0.500
Naive supercell factors:     5    5    5

superc: Internal auxiliary supercell:     5 x     5 x     5  =     125
superc: Number of atoms, orbitals, and projectors:   1000  13000  16000

outcell: Unit cell vectors (Ang):
        5.138989   -0.010801   -0.010801
       -0.010801    5.138989   -0.010801
       -0.010801   -0.010801    5.138989

outcell: Cell vector modules (Ang)   :    5.139012    5.139012    5.139012
outcell: Cell angles (23,13,12) (deg):     90.2406     90.2406     90.2406
outcell: Cell volume (Ang**3)        :    135.7148
New_DM. Step:     2
Re-using DM from previous geometry...
Re-using DM without extrapolation (not allowed)
Density Matrix sparsity pattern changed.

InitMesh: MESH =    32 x    32 x    32 =       32768
InitMesh: Mesh cutoff (required, used) =   100.000   107.166 Ry

siesta: iscf   Eharris(eV)      E_KS(eV)   FreeEng(eV)   dDmax  Ef(eV)
siesta:    1    -1026.3396    -1025.0119    -1025.0133  0.0571 -5.4929
siesta:    2    -1026.3630    -1026.3143    -1026.3160  0.0310 -5.4513
siesta:    3    -1026.3308    -1026.2548    -1026.2566  0.0054 -5.4736
siesta:    4    -1026.3306    -1026.3127    -1026.3144  0.0006 -5.4761

siesta: E_KS(eV) =            -1026.3222

siesta: Atomic forces (eV/Ang):
----------------------------------------
   Tot   -0.010816   -0.010812   -0.010799
----------------------------------------
   Max    2.957320
   Res    2.034954    sqrt( Sum f_i^2 / 3N )
----------------------------------------
   Max    2.957320    constrained

Stress-tensor-Voigt (kbar):     -310.11     -310.11     -310.11       70.14       70.14       70.14
(Free)E + p*V (eV/cell)    -1000.0557
Target enthalpy (eV/cell)    -1026.3239

siesta: Stress tensor (static) (eV/Ang**3):
        -0.193555    0.043778    0.043778
         0.043778   -0.193554    0.043778
         0.043778    0.043778   -0.193555

siesta: Pressure (static):        310.11189124  kBar

siesta: Stress tensor (total) (eV/Ang**3):
        -0.193555    0.043778    0.043778
         0.043778   -0.193554    0.043778
         0.043778    0.043778   -0.193555

siesta: Pressure (total):        310.11189124  kBar

mulliken: Mulliken Atomic and Orbital Populations:

Species: Si                  
Atom  Qatom  Qorb
               3s      3s      3py     3pz     3px     3py     3pz     3px     
               3Pdxy   3Pdyz   3Pdz2   3Pdxz   3Pdx2-y2
   1  4.157   0.309   0.764   0.059   0.059   0.059   0.711   0.711   0.711
              0.172   0.172   0.130   0.172   0.130
   2  3.888   0.631   0.586   0.092   0.092   0.092   0.611   0.611   0.611
              0.134   0.134   0.080   0.134   0.080
   3  3.949   0.517   0.640   0.049   0.125   0.049   0.663   0.617   0.663
              0.153   0.142   0.085   0.142   0.103
   4  4.036   0.411   0.699   0.094  -0.013   0.094   0.664   0.728   0.664
              0.153   0.160   0.126   0.160   0.097
   5  3.949   0.517   0.640   0.125   0.049   0.049   0.617   0.663   0.663
              0.142   0.142   0.099   0.153   0.089
   6  4.036   0.411   0.699  -0.013   0.094   0.094   0.728   0.664   0.664
              0.160   0.160   0.104   0.153   0.119
   7  3.949   0.517   0.640   0.049   0.049   0.125   0.663   0.663   0.617
              0.142   0.153   0.099   0.142   0.089
   8  4.036   0.411   0.699   0.094   0.094  -0.013   0.664   0.664   0.728
              0.160   0.153   0.104   0.160   0.119

mulliken: Qtot =       32.000

* Maximum dynamic memory allocated =    90 MB

siesta:                 ==============================
                            Begin CG move =      2
                        ==============================

outcoor: Atomic coordinates (Ang):                          
    0.04935323    0.04935313    0.04935299   1       1  Si
    1.37992559    1.37992559    1.37992557   1       2  Si
    2.75044810    2.75044802    0.01733708   1       3  Si
    4.06609979    4.06609984    1.38493375   1       4  Si
    2.75044817    0.01733685    2.75044823   1       5  Si
    4.06610005    1.38493369    4.06609974   1       6  Si
    0.01733691    2.75044817    2.75044819   1       7  Si
    1.38493364    4.06610004    4.06609984   1       8  Si
 Kpoints in:  256 . Kpoints trimmed:  256

siesta: k-grid: Number of k-points =   256
siesta: k-grid: Cutoff (effective) =    20.806 Ang
siesta: k-grid: Supercell and displacements
siesta: k-grid:    0   0   8      0.500
siesta: k-grid:    8   0   0      0.500
siesta: k-grid:    0   8   0      0.500
Naive supercell factors:     5    5    5

superc: Internal auxiliary supercell:     5 x     5 x     5  =     125
superc: Number of atoms, orbitals, and projectors:   1000  13000  16000

outcell: Unit cell vectors (Ang):
        5.201372   -0.028082   -0.028082
       -0.028082    5.201372   -0.028082
       -0.028082   -0.028082    5.201372

outcell: Cell vector modules (Ang)   :    5.201524    5.201524    5.201524
outcell: Cell angles (23,13,12) (deg):     90.6170     90.6170     90.6170
outcell: Cell volume (Ang**3)        :    140.7070
New_DM. Step:     3
Re-using DM from previous geometry...
Re-using DM without extrapolation (not allowed)
Density Matrix sparsity pattern changed.

InitMesh: MESH =    32 x    32 x    32 =       32768
InitMesh: Mesh cutoff (required, used) =   100.000   104.627 Ry

siesta: iscf   Eharris(eV)      E_KS(eV)   FreeEng(eV)   dDmax  Ef(eV)
siesta:    1    -1028.2865    -1026.3461    -1026.3478  0.0816 -5.5050
siesta:    2    -1028.3889    -1028.1810    -1028.1816  0.0621 -5.4299
siesta:    3    -1028.2516    -1028.0237    -1028.0243  0.0137 -5.4768
siesta:    4    -1028.2506    -1028.2143    -1028.2149  0.0006 -5.4811

siesta: E_KS(eV) =            -1028.2260

siesta: Atomic forces (eV/Ang):
----------------------------------------
   Tot   -0.005043   -0.005033   -0.005052
----------------------------------------
   Max    1.988153
   Res    1.225127    sqrt( Sum f_i^2 / 3N )
----------------------------------------
   Max    1.988153    constrained

Stress-tensor-Voigt (kbar):     -228.44     -228.44     -228.44       26.88       26.88       26.88
(Free)E + p*V (eV/cell)    -1008.1649
Target enthalpy (eV/cell)    -1028.2267

siesta: Stress tensor (static) (eV/Ang**3):
        -0.142578    0.016774    0.016774
         0.016774   -0.142578    0.016774
         0.016774    0.016774   -0.142578

siesta: Pressure (static):        228.43799378  kBar

siesta: Stress tensor (total) (eV/Ang**3):
        -0.142578    0.016774    0.016774
         0.016774   -0.142578    0.016774
         0.016774    0.016774   -0.142578

siesta: Pressure (total):        228.43799378  kBar

mulliken: Mulliken Atomic and Orbital Populations:

Species: Si                  
Atom  Qatom  Qorb
               3s      3s      3py     3pz     3px     3py     3pz     3px     
               3Pdxy   3Pdyz   3Pdz2   3Pdxz   3Pdx2-y2
   1  4.067   0.402   0.703   0.077   0.077   0.077   0.680   0.680   0.680
              0.158   0.158   0.109   0.158   0.109
   2  3.929   0.624   0.586   0.123   0.123   0.123   0.599   0.599   0.599
              0.132   0.132   0.078   0.132   0.078
   3  3.979   0.531   0.630   0.088   0.135   0.088   0.642   0.614   0.642
              0.147   0.140   0.085   0.140   0.096
   4  4.022   0.454   0.671   0.117   0.020   0.117   0.642   0.701   0.642
              0.147   0.154   0.112   0.154   0.091
   5  3.979   0.531   0.630   0.135   0.088   0.088   0.614   0.642   0.642
              0.140   0.140   0.093   0.147   0.087
   6  4.022   0.454   0.671   0.020   0.117   0.117   0.701   0.642   0.642
              0.154   0.154   0.096   0.147   0.107
   7  3.979   0.531   0.630   0.088   0.088   0.135   0.642   0.642   0.614
              0.140   0.147   0.093   0.140   0.087
   8  4.022   0.454   0.671   0.117   0.117   0.020   0.642   0.642   0.701
              0.154   0.147   0.096   0.154   0.107

mulliken: Qtot =       32.000

* Maximum dynamic memory allocated =    90 MB

siesta:                 ==============================
                            Begin CG move =      3
                        ==============================

outcoor: Atomic coordinates (Ang):                          
    0.09879454    0.09879433    0.09879405   1       1  Si
    1.39967975    1.39967975    1.39967971   1       2  Si
    2.77969768    2.77969752    0.03638290   1       3  Si
    4.05017465    4.05017475    1.41246340   1       4  Si
    2.77969781    0.03638244    2.77969795   1       5  Si
    4.05017516    1.41246329    4.05017453   1       6  Si
    0.03638256    2.77969782    2.77969786   1       7  Si
    1.41246318    4.05017515    4.05017474   1       8  Si
 Kpoints in:  196 . Kpoints trimmed:  172

siesta: k-grid: Number of k-points =   172
siesta: k-grid: Cutoff (effective) =    18.556 Ang
siesta: k-grid: Supercell and displacements
siesta: k-grid:    0   0   7      0.000
siesta: k-grid:    7   0   0      0.000
siesta: k-grid:    0   7   0      0.000
Naive supercell factors:     5    5    5

superc: Internal auxiliary supercell:     5 x     5 x     5  =     125
superc: Number of atoms, orbitals, and projectors:   1000  13000  16000

outcell: Unit cell vectors (Ang):
        5.301184   -0.055733   -0.055732
       -0.055733    5.301184   -0.055732
       -0.055732   -0.055732    5.301184

outcell: Cell vector modules (Ang)   :    5.301770    5.301770    5.301770
outcell: Cell angles (23,13,12) (deg):     91.1982     91.1982     91.1982
outcell: Cell volume (Ang**3)        :    148.9271
New_DM. Step:     4
Re-using DM from previous geometry...
Re-using DM without extrapolation (not allowed)
Density Matrix sparsity pattern changed.

InitMesh: MESH =    32 x    32 x    32 =       32768
InitMesh: Mesh cutoff (required, used) =   100.000   100.774 Ry

siesta: iscf   Eharris(eV)      E_KS(eV)   FreeEng(eV)   dDmax  Ef(eV)
siesta:    1    -1029.8945    -1027.2353    -1027.2359  0.0828 -5.3506
siesta:    2    -1030.3417    -1029.4258    -1029.4259  0.1072 -5.3496
siesta:    3    -1029.7385    -1029.1053    -1029.1053  0.0318 -5.3299
siesta:    4    -1029.7359    -1029.6331    -1029.6331  0.0019 -5.3344
siesta:    5    -1029.7358    -1029.6646    -1029.6647  0.0011 -5.3336
siesta:    6    -1029.7359    -1029.7205    -1029.7206  0.0005 -5.3323

siesta: E_KS(eV) =            -1029.7319

siesta: Atomic forces (eV/Ang):
----------------------------------------
   Tot    0.001195    0.001210    0.001229
----------------------------------------
   Max    0.891407
   Res    0.593176    sqrt( Sum f_i^2 / 3N )
----------------------------------------
   Max    0.891407    constrained

Stress-tensor-Voigt (kbar):     -136.70     -136.70     -136.70      -23.11      -23.11      -23.11
(Free)E + p*V (eV/cell)    -1017.0255
Target enthalpy (eV/cell)    -1029.7319

siesta: Stress tensor (static) (eV/Ang**3):
        -0.085319   -0.014427   -0.014426
        -0.014427   -0.085319   -0.014426
        -0.014426   -0.014426   -0.085320

siesta: Pressure (static):        136.69841207  kBar

siesta: Stress tensor (total) (eV/Ang**3):
        -0.085319   -0.014427   -0.014426
        -0.014427   -0.085319   -0.014426
        -0.014426   -0.014426   -0.085320

siesta: Pressure (total):        136.69841207  kBar

mulliken: Mulliken Atomic and Orbital Populations:

Species: Si                  
Atom  Qatom  Qorb
               3s      3s      3py     3pz     3px     3py     3pz     3px     
               3Pdxy   3Pdyz   3Pdz2   3Pdxz   3Pdx2-y2
   1  3.998   0.553   0.617   0.146   0.146   0.146   0.604   0.604   0.604
              0.136   0.136   0.085   0.136   0.085
   2  3.979   0.615   0.584   0.164   0.164   0.164   0.581   0.581   0.581
              0.130   0.130   0.078   0.130   0.078
   3  4.000   0.541   0.624   0.147   0.139   0.147   0.604   0.610   0.604
              0.137   0.137   0.086   0.137   0.085
   4  4.008   0.520   0.635   0.154   0.101   0.154   0.605   0.638   0.605
              0.138   0.141   0.093   0.141   0.084
   5  4.000   0.541   0.624   0.139   0.147   0.147   0.610   0.604   0.604
              0.137   0.137   0.085   0.137   0.086
   6  4.008   0.520   0.635   0.101   0.154   0.154   0.638   0.605   0.605
              0.141   0.141   0.086   0.138   0.091
   7  4.000   0.541   0.624   0.147   0.147   0.139   0.604   0.604   0.610
              0.137   0.137   0.085   0.137   0.086
   8  4.008   0.520   0.635   0.154   0.154   0.101   0.605   0.605   0.638
              0.141   0.138   0.086   0.141   0.091

mulliken: Qtot =       32.000

* Maximum dynamic memory allocated =    90 MB

siesta:                 ==============================
                            Begin CG move =      4
                        ==============================

outcoor: Atomic coordinates (Ang):                          
    0.15321422    0.15321389    0.15321346   1       1  Si
    1.42119580    1.42119580    1.42119573   1       2  Si
    2.81051711    2.81051686    0.05918835   1       3  Si
    4.03045024    4.03045041    1.44556598   1       4  Si
    2.81051731    0.05918763    2.81051753   1       5  Si
    4.03045105    1.44556580    4.03045005   1       6  Si
    0.05918782    2.81051732    2.81051740   1       7  Si
    1.44556563    4.03045103    4.03045039   1       8  Si
 Kpoints in:  196 . Kpoints trimmed:  172

siesta: k-grid: Number of k-points =   172
siesta: k-grid: Cutoff (effective) =    18.937 Ang
siesta: k-grid: Supercell and displacements
siesta: k-grid:    0   0   7      0.000
siesta: k-grid:    7   0   0      0.000
siesta: k-grid:    0   7   0      0.000
Naive supercell factors:     5    5    5

superc: Internal auxiliary supercell:     5 x     5 x     5  =     125
superc: Number of atoms, orbitals, and projectors:   1000  13000  16000

outcell: Unit cell vectors (Ang):
        5.409136   -0.085638   -0.085638
       -0.085638    5.409136   -0.085638
       -0.085638   -0.085638    5.409136

outcell: Cell vector modules (Ang)   :    5.410492    5.410492    5.410492
outcell: Cell angles (23,13,12) (deg):     91.7992     91.7992     91.7993
outcell: Cell volume (Ang**3)        :    158.1443
New_DM. Step:     5
Re-using DM from previous geometry...
Re-using DM without extrapolation (not allowed)
Density Matrix sparsity pattern changed.

InitMesh: MESH =    36 x    36 x    36 =       46656
InitMesh: Mesh cutoff (required, used) =   100.000   122.608 Ry

siesta: iscf   Eharris(eV)      E_KS(eV)   FreeEng(eV)   dDmax  Ef(eV)
siesta:    1    -1029.8994    -1027.8356    -1027.8357  0.0665 -5.2216
siesta:    2    -1030.7125    -1029.0755    -1029.0757  0.1072 -5.2325
siesta:    3    -1029.6223    -1028.9002    -1028.9015  0.0346 -5.2539
siesta:    4    -1029.6213    -1029.4555    -1029.4558  0.0036 -5.2590
siesta:    5    -1029.6211    -1029.5213    -1029.5216  0.0018 -5.2591
siesta:    6    -1029.6211    -1029.5868    -1029.5871  0.0004 -5.2586

siesta: E_KS(eV) =            -1029.6009

siesta: Atomic forces (eV/Ang):
----------------------------------------
   Tot    0.000094    0.000098    0.000087
----------------------------------------
   Max    1.792322
   Res    1.251939    sqrt( Sum f_i^2 / 3N )
----------------------------------------
   Max    1.792322    constrained

Stress-tensor-Voigt (kbar):      -75.30      -75.30      -75.30      -60.48      -60.48      -60.48
(Free)E + p*V (eV/cell)    -1022.1690
Target enthalpy (eV/cell)    -1029.6012

siesta: Stress tensor (static) (eV/Ang**3):
        -0.046996   -0.037750   -0.037750
        -0.037750   -0.046996   -0.037750
        -0.037750   -0.037750   -0.046996

siesta: Pressure (static):         75.29701355  kBar

siesta: Stress tensor (total) (eV/Ang**3):
        -0.046996   -0.037750   -0.037750
        -0.037750   -0.046996   -0.037750
        -0.037750   -0.037750   -0.046996

siesta: Pressure (total):         75.29701355  kBar

mulliken: Mulliken Atomic and Orbital Populations:

Species: Si                  
Atom  Qatom  Qorb
               3s      3s      3py     3pz     3px     3py     3pz     3px     
               3Pdxy   3Pdyz   3Pdz2   3Pdxz   3Pdx2-y2
   1  4.008   0.701   0.546   0.251   0.251   0.251   0.509   0.509   0.509
              0.115   0.115   0.067   0.115   0.067
   2  4.004   0.576   0.608   0.192   0.192   0.192   0.565   0.565   0.565
              0.130   0.130   0.079   0.130   0.079
   3  4.002   0.539   0.626   0.202   0.129   0.202   0.564   0.610   0.564
              0.129   0.135   0.092   0.135   0.075
   4  3.994   0.579   0.604   0.192   0.192   0.192   0.565   0.565   0.565
              0.128   0.127   0.080   0.127   0.078
   5  4.002   0.539   0.626   0.129   0.202   0.202   0.610   0.564   0.564
              0.135   0.135   0.079   0.129   0.087
   6  3.994   0.579   0.604   0.192   0.192   0.192   0.565   0.565   0.565
              0.127   0.127   0.079   0.128   0.079
   7  4.002   0.539   0.626   0.202   0.202   0.129   0.564   0.564   0.610
              0.135   0.129   0.079   0.135   0.087
   8  3.994   0.579   0.604   0.192   0.192   0.192   0.565   0.565   0.565
              0.127   0.128   0.079   0.127   0.079

mulliken: Qtot =       32.000

* Maximum dynamic memory allocated =    90 MB

siesta:                 ==============================
                            Begin CG move =      5
                        ==============================

outcoor: Atomic coordinates (Ang):                          
    0.12706053    0.12706026    0.12705990   1       1  Si
    1.41088430    1.41088430    1.41088424   1       2  Si
    2.79588074    2.79588054    0.04799357   1       3  Si
    4.04020937    4.04020951    1.42930030   1       4  Si
    2.79588091    0.04799298    2.79588109   1       5  Si
    4.04021004    1.42930016    4.04020922   1       6  Si
    0.04799313    2.79588092    2.79588098   1       7  Si
    1.42930001    4.04021002    4.04020950   1       8  Si
 Kpoints in:  196 . Kpoints trimmed:  172

siesta: k-grid: Number of k-points =   172
siesta: k-grid: Cutoff (effective) =    18.755 Ang
siesta: k-grid: Supercell and displacements
siesta: k-grid:    0   0   7      0.000
siesta: k-grid:    7   0   0      0.000
siesta: k-grid:    0   7   0      0.000
Naive supercell factors:     5    5    5

superc: Internal auxiliary supercell:     5 x     5 x     5  =     125
superc: Number of atoms, orbitals, and projectors:   1000  13000  16000

outcell: Unit cell vectors (Ang):
        5.357499   -0.071333   -0.071333
       -0.071333    5.357499   -0.071333
       -0.071333   -0.071333    5.357499

outcell: Cell vector modules (Ang)   :    5.358449    5.358449    5.358449
outcell: Cell angles (23,13,12) (deg):     91.5152     91.5152     91.5152
outcell: Cell volume (Ang**3)        :    153.6927
New_DM. Step:     6
Re-using DM from previous geometry...
Re-using DM without extrapolation (not allowed)
Density Matrix sparsity pattern changed.

InitMesh: MESH =    36 x    36 x    36 =       46656
InitMesh: Mesh cutoff (required, used) =   100.000   124.926 Ry

siesta: iscf   Eharris(eV)      E_KS(eV)   FreeEng(eV)   dDmax  Ef(eV)
siesta:    1    -1029.9178    -1030.4764    -1030.4767  0.0267 -5.3102
siesta:    2    -1030.0773    -1029.7486    -1029.7486  0.0591 -5.2856
siesta:    3    -1029.8601    -1029.9921    -1029.9921  0.0139 -5.2949
siesta:    4    -1029.8598    -1029.8330    -1029.8330  0.0020 -5.2939
siesta:    5    -1029.8597    -1029.8392    -1029.8392  0.0012 -5.2935
siesta:    6    -1029.8597    -1029.8539    -1029.8540  0.0003 -5.2931

siesta: E_KS(eV) =            -1029.8569

siesta: Atomic forces (eV/Ang):
----------------------------------------
   Tot   -0.012723   -0.012718   -0.012717
----------------------------------------
   Max    1.118294
   Res    0.858122    sqrt( Sum f_i^2 / 3N )
----------------------------------------
   Max    1.118294    constrained

Stress-tensor-Voigt (kbar):     -100.27     -100.27     -100.27      -44.15      -44.15      -44.15
(Free)E + p*V (eV/cell)    -1020.2381
Target enthalpy (eV/cell)    -1029.8570

siesta: Stress tensor (static) (eV/Ang**3):
        -0.062585   -0.027555   -0.027555
        -0.027555   -0.062585   -0.027555
        -0.027555   -0.027555   -0.062585

siesta: Pressure (static):        100.27282929  kBar

siesta: Stress tensor (total) (eV/Ang**3):
        -0.062585   -0.027555   -0.027555
        -0.027555   -0.062585   -0.027555
        -0.027555   -0.027555   -0.062585

siesta: Pressure (total):        100.27282929  kBar

mulliken: Mulliken Atomic and Orbital Populations:

Species: Si                  
Atom  Qatom  Qorb
               3s      3s      3py     3pz     3px     3py     3pz     3px     
               3Pdxy   3Pdyz   3Pdz2   3Pdxz   3Pdx2-y2
   1  3.991   0.630   0.579   0.195   0.195   0.195   0.557   0.557   0.557
              0.125   0.125   0.075   0.125   0.075
   2  3.992   0.599   0.594   0.181   0.181   0.181   0.570   0.570   0.570
              0.129   0.129   0.078   0.129   0.078
   3  4.004   0.543   0.622   0.179   0.135   0.179   0.582   0.611   0.582
              0.133   0.136   0.088   0.136   0.080
   4  4.002   0.555   0.616   0.174   0.151   0.174   0.584   0.599   0.584
              0.132   0.134   0.085   0.134   0.081
   5  4.004   0.543   0.622   0.135   0.179   0.179   0.611   0.582   0.582
              0.136   0.136   0.082   0.133   0.086
   6  4.002   0.555   0.616   0.151   0.174   0.174   0.599   0.584   0.584
              0.134   0.134   0.082   0.132   0.084
   7  4.004   0.543   0.622   0.179   0.179   0.135   0.582   0.582   0.611
              0.136   0.133   0.082   0.136   0.086
   8  4.002   0.555   0.616   0.174   0.174   0.151   0.584   0.584   0.599
              0.134   0.132   0.082   0.134   0.084

mulliken: Qtot =       32.000

cgvc: Finished line minimization    1.  Mean atomic displacement =    0.1581

* Maximum dynamic memory allocated =    90 MB

siesta:                 ==============================
                            Begin CG move =      6
                        ==============================

outcoor: Atomic coordinates (Ang):                          
    0.10626313    0.10626306    0.10626321   1       1  Si
    1.49012111    1.49012112    1.49012142   1       2  Si
    2.82485917    2.82485912    0.10176596   1       3  Si
    4.17881196    4.17881215    1.49117288   1       4  Si
    2.82485933    0.10176566    2.82485942   1       5  Si
    4.17881186    1.49117319    4.17881144   1       6  Si
    0.10176583    2.82485943    2.82485946   1       7  Si
    1.49117316    4.17881177    4.17881167   1       8  Si
 Kpoints in:  196 . Kpoints trimmed:  172

siesta: k-grid: Number of k-points =   172
siesta: k-grid: Cutoff (effective) =    19.130 Ang
siesta: k-grid: Supercell and displacements
siesta: k-grid:    7   0   0      0.000
siesta: k-grid:    0   7   0      0.000
siesta: k-grid:    0   0   7      0.000
Naive supercell factors:     5    5    5

superc: Internal auxiliary supercell:     5 x     5 x     5  =     125
superc: Number of atoms, orbitals, and projectors:   1000  13000  16000

outcell: Unit cell vectors (Ang):
        5.465451   -0.045653   -0.045653
       -0.045653    5.465451   -0.045653
       -0.045653   -0.045653    5.465451

outcell: Cell vector modules (Ang)   :    5.465832    5.465832    5.465832
outcell: Cell angles (23,13,12) (deg):     90.9531     90.9531     90.9531
outcell: Cell volume (Ang**3)        :    163.2250
New_DM. Step:     7
Re-using DM from previous geometry...
Re-using DM without extrapolation (not allowed)
Density Matrix sparsity pattern changed.

InitMesh: MESH =    36 x    36 x    36 =       46656
InitMesh: Mesh cutoff (required, used) =   100.000   119.961 Ry

siesta: iscf   Eharris(eV)      E_KS(eV)   FreeEng(eV)   dDmax  Ef(eV)
siesta:    1    -1030.5640    -1028.5474    -1028.5475  0.0631 -5.0197
siesta:    2    -1030.6535    -1030.4635    -1030.4635  0.0601 -5.0099
siesta:    3    -1030.5288    -1030.3516    -1030.3516  0.0072 -5.0203
siesta:    4    -1030.5279    -1030.5038    -1030.5038  0.0018 -5.0228
siesta:    5    -1030.5278    -1030.5148    -1030.5148  0.0011 -5.0231
siesta:    6    -1030.5278    -1030.5204    -1030.5204  0.0003 -5.0234

siesta: E_KS(eV) =            -1030.5224

siesta: Atomic forces (eV/Ang):
----------------------------------------
   Tot   -0.005788   -0.005790   -0.005804
----------------------------------------
   Max    0.643127
   Res    0.341391    sqrt( Sum f_i^2 / 3N )
----------------------------------------
   Max    0.643127    constrained

Stress-tensor-Voigt (kbar):      -26.45      -26.45      -26.45       -6.23       -6.23       -6.23
(Free)E + p*V (eV/cell)    -1027.8280
Target enthalpy (eV/cell)    -1030.5225

siesta: Stress tensor (static) (eV/Ang**3):
        -0.016508   -0.003888   -0.003888
        -0.003888   -0.016508   -0.003888
        -0.003888   -0.003888   -0.016508

siesta: Pressure (static):         26.44860119  kBar

siesta: Stress tensor (total) (eV/Ang**3):
        -0.016508   -0.003888   -0.003888
        -0.003888   -0.016508   -0.003888
        -0.003888   -0.003888   -0.016508

siesta: Pressure (total):         26.44860119  kBar

mulliken: Mulliken Atomic and Orbital Populations:

Species: Si                  
Atom  Qatom  Qorb
               3s      3s      3py     3pz     3px     3py     3pz     3px     
               3Pdxy   3Pdyz   3Pdz2   3Pdxz   3Pdx2-y2
   1  3.996   0.674   0.555   0.244   0.244   0.244   0.517   0.517   0.517
              0.117   0.117   0.068   0.117   0.068
   2  4.005   0.604   0.589   0.217   0.217   0.217   0.546   0.546   0.546
              0.125   0.125   0.075   0.125   0.075
   3  4.003   0.599   0.592   0.224   0.198   0.224   0.541   0.558   0.541
              0.123   0.126   0.078   0.126   0.073
   4  3.997   0.621   0.581   0.221   0.226   0.221   0.539   0.535   0.539
              0.123   0.122   0.073   0.122   0.074
   5  4.003   0.599   0.592   0.198   0.224   0.224   0.558   0.541   0.541
              0.126   0.126   0.074   0.123   0.077
   6  3.997   0.621   0.581   0.226   0.221   0.221   0.535   0.539   0.539
              0.122   0.122   0.073   0.123   0.073
   7  4.003   0.599   0.592   0.224   0.224   0.198   0.541   0.541   0.558
              0.126   0.123   0.074   0.126   0.077
   8  3.997   0.621   0.581   0.221   0.221   0.226   0.539   0.539   0.535
              0.122   0.123   0.073   0.122   0.073

mulliken: Qtot =       32.000

* Maximum dynamic memory allocated =    90 MB

siesta:                 ==============================
                            Begin CG move =      7
                        ==============================

outcoor: Atomic coordinates (Ang):                          
    0.08400256    0.08400269    0.08400339   1       1  Si
    1.57150029    1.57150030    1.57150098   1       2  Si
    2.85197950    2.85197961    0.15566388   1       3  Si
    4.31874408    4.31874432    1.55326542   1       4  Si
    2.85197967    0.15566388    2.85197966   1       5  Si
    4.31874317    1.55326619    4.31874317   1       6  Si
    0.15566406    2.85197985    2.85197985   1       7  Si
    1.55326628    4.31874301    4.31874335   1       8  Si
 Kpoints in:  196 . Kpoints trimmed:  172

siesta: k-grid: Number of k-points =   172
siesta: k-grid: Cutoff (effective) =    19.507 Ang
siesta: k-grid: Supercell and displacements
siesta: k-grid:    7   0   0      0.000
siesta: k-grid:    0   7   0      0.000
siesta: k-grid:    0   0   7      0.000
Naive supercell factors:     5    5    5

superc: Internal auxiliary supercell:     5 x     5 x     5  =     125
superc: Number of atoms, orbitals, and projectors:   1000  13000  16000

outcell: Unit cell vectors (Ang):
        5.573403   -0.019974   -0.019974
       -0.019974    5.573403   -0.019974
       -0.019974   -0.019974    5.573403

outcell: Cell vector modules (Ang)   :    5.573474    5.573474    5.573475
outcell: Cell angles (23,13,12) (deg):     90.4099     90.4099     90.4099
outcell: Cell volume (Ang**3)        :    173.1189
New_DM. Step:     8
Re-using DM from previous geometry...
Re-using DM without extrapolation (not allowed)
Density Matrix sparsity pattern changed.

InitMesh: MESH =    36 x    36 x    36 =       46656
InitMesh: Mesh cutoff (required, used) =   100.000   115.319 Ry

siesta: iscf   Eharris(eV)      E_KS(eV)   FreeEng(eV)   dDmax  Ef(eV)
siesta:    1    -1030.2050    -1028.7234    -1028.7234  0.0497 -4.7499
siesta:    2    -1030.3146    -1030.0796    -1030.0800  0.0701 -4.8212
siesta:    3    -1030.1592    -1029.9258    -1029.9262  0.0082 -4.7840
siesta:    4    -1030.1587    -1030.1282    -1030.1287  0.0029 -4.7856
siesta:    5    -1030.1585    -1030.1440    -1030.1445  0.0015 -4.7851
siesta:    6    -1030.1585    -1030.1499    -1030.1504  0.0004 -4.7842

siesta: E_KS(eV) =            -1030.1525

siesta: Atomic forces (eV/Ang):
----------------------------------------
   Tot    0.003915    0.003909    0.003910
----------------------------------------
   Max    1.273306
   Res    0.882161    sqrt( Sum f_i^2 / 3N )
----------------------------------------
   Max    1.273306    constrained

Stress-tensor-Voigt (kbar):       18.89       18.89       18.89       13.94       13.94       13.94
(Free)E + p*V (eV/cell)    -1032.1941
Target enthalpy (eV/cell)    -1030.1529

siesta: Stress tensor (static) (eV/Ang**3):
         0.011791    0.008701    0.008701
         0.008701    0.011791    0.008701
         0.008701    0.008701    0.011791

siesta: Pressure (static):        -18.89104664  kBar

siesta: Stress tensor (total) (eV/Ang**3):
         0.011791    0.008701    0.008701
         0.008701    0.011791    0.008701
         0.008701    0.008701    0.011791

siesta: Pressure (total):        -18.89104664  kBar

mulliken: Mulliken Atomic and Orbital Populations:

Species: Si                  
Atom  Qatom  Qorb
               3s      3s      3py     3pz     3px     3py     3pz     3px     
               3Pdxy   3Pdyz   3Pdz2   3Pdxz   3Pdx2-y2
   1  4.002   0.695   0.547   0.284   0.284   0.284   0.482   0.482   0.482
              0.111   0.111   0.065   0.111   0.065
   2  4.021   0.590   0.597   0.249   0.249   0.249   0.524   0.524   0.524
              0.122   0.122   0.075   0.122   0.075
   3  3.997   0.647   0.569   0.265   0.249   0.265   0.502   0.513   0.502
              0.115   0.116   0.071   0.116   0.067
   4  3.995   0.683   0.552   0.267   0.294   0.267   0.494   0.475   0.494
              0.115   0.111   0.063   0.111   0.068
   5  3.997   0.647   0.569   0.249   0.265   0.265   0.513   0.502   0.502
              0.116   0.116   0.068   0.115   0.070
   6  3.995   0.683   0.552   0.294   0.267   0.267   0.475   0.494   0.494
              0.111   0.111   0.066   0.115   0.064
   7  3.997   0.647   0.569   0.265   0.265   0.249   0.502   0.502   0.513
              0.116   0.115   0.068   0.116   0.070
   8  3.995   0.683   0.552   0.267   0.267   0.294   0.494   0.494   0.475
              0.111   0.115   0.066   0.111   0.064

mulliken: Qtot =       32.000

* Maximum dynamic memory allocated =    90 MB

siesta:                 ==============================
                            Begin CG move =      8
                        ==============================

outcoor: Atomic coordinates (Ang):                          
    0.10392208    0.10392203    0.10392225   1       1  Si
    1.49883429    1.49883429    1.49883464   1       2  Si
    2.82788715    2.82788711    0.10759922   1       3  Si
    4.19390805    4.19390825    1.49788939   1       4  Si
    2.82788731    0.10759895    2.82788739   1       5  Si
    4.19390786    1.49788975    4.19390749   1       6  Si
    0.10759912    2.82788741    2.82788745   1       7  Si
    1.49788973    4.19390777    4.19390772   1       8  Si
 Kpoints in:  196 . Kpoints trimmed:  172

siesta: k-grid: Number of k-points =   172
siesta: k-grid: Cutoff (effective) =    19.171 Ang
siesta: k-grid: Supercell and displacements
siesta: k-grid:    7   0   0      0.000
siesta: k-grid:    0   7   0      0.000
siesta: k-grid:    0   0   7      0.000
Naive supercell factors:     5    5    5

superc: Internal auxiliary supercell:     5 x     5 x     5  =     125
superc: Number of atoms, orbitals, and projectors:   1000  13000  16000

outcell: Unit cell vectors (Ang):
        5.477146   -0.042871   -0.042871
       -0.042871    5.477146   -0.042871
       -0.042871   -0.042871    5.477147

outcell: Cell vector modules (Ang)   :    5.477482    5.477482    5.477482
outcell: Cell angles (23,13,12) (deg):     90.8934     90.8934     90.8934
outcell: Cell volume (Ang**3)        :    164.2793
New_DM. Step:     9
Re-using DM from previous geometry...
Re-using DM without extrapolation (not allowed)
Density Matrix sparsity pattern changed.

InitMesh: MESH =    36 x    36 x    36 =       46656
InitMesh: Mesh cutoff (required, used) =   100.000   119.443 Ry

siesta: iscf   Eharris(eV)      E_KS(eV)   FreeEng(eV)   dDmax  Ef(eV)
siesta:    1    -1030.5645    -1031.7180    -1031.7185  0.0427 -4.9878
siesta:    2    -1030.6435    -1030.4742    -1030.4742  0.0551 -5.0004
siesta:    3    -1030.5325    -1030.6279    -1030.6279  0.0078 -4.9890
siesta:    4    -1030.5318    -1030.5128    -1030.5128  0.0026 -4.9862
siesta:    5    -1030.5317    -1030.5151    -1030.5151  0.0016 -4.9857
siesta:    6    -1030.5317    -1030.5280    -1030.5280  0.0004 -4.9853

siesta: E_KS(eV) =            -1030.5306

siesta: Atomic forces (eV/Ang):
----------------------------------------
   Tot   -0.006526   -0.006529   -0.006532
----------------------------------------
   Max    0.648274
   Res    0.385314    sqrt( Sum f_i^2 / 3N )
----------------------------------------
   Max    0.648274    constrained

Stress-tensor-Voigt (kbar):      -20.30      -20.30      -20.30       -3.41       -3.41       -3.41
(Free)E + p*V (eV/cell)    -1028.4487
Target enthalpy (eV/cell)    -1030.5306

siesta: Stress tensor (static) (eV/Ang**3):
        -0.012673   -0.002125   -0.002125
        -0.002125   -0.012673   -0.002125
        -0.002125   -0.002125   -0.012673

siesta: Pressure (static):         20.30475203  kBar

siesta: Stress tensor (total) (eV/Ang**3):
        -0.012673   -0.002125   -0.002125
        -0.002125   -0.012673   -0.002125
        -0.002125   -0.002125   -0.012673

siesta: Pressure (total):         20.30475203  kBar

mulliken: Mulliken Atomic and Orbital Populations:

Species: Si                  
Atom  Qatom  Qorb
               3s      3s      3py     3pz     3px     3py     3pz     3px     
               3Pdxy   3Pdyz   3Pdz2   3Pdxz   3Pdx2-y2
   1  3.995   0.677   0.554   0.247   0.247   0.247   0.513   0.513   0.513
              0.116   0.116   0.068   0.116   0.068
   2  4.006   0.604   0.589   0.220   0.220   0.220   0.544   0.544   0.544
              0.124   0.124   0.075   0.124   0.075
   3  4.002   0.604   0.590   0.229   0.204   0.229   0.537   0.552   0.537
              0.122   0.125   0.077   0.125   0.072
   4  3.998   0.628   0.578   0.227   0.235   0.227   0.534   0.528   0.534
              0.122   0.121   0.071   0.121   0.073
   5  4.002   0.604   0.590   0.204   0.229   0.229   0.552   0.537   0.537
              0.125   0.125   0.073   0.122   0.076
   6  3.998   0.628   0.578   0.235   0.227   0.227   0.528   0.534   0.534
              0.121   0.121   0.073   0.122   0.072
   7  4.002   0.604   0.590   0.229   0.229   0.204   0.537   0.537   0.552
              0.125   0.122   0.073   0.125   0.076
   8  3.998   0.628   0.578   0.227   0.227   0.235   0.534   0.534   0.528
              0.121   0.122   0.073   0.121   0.072

mulliken: Qtot =       32.000

cgvc: Finished line minimization    2.  Mean atomic displacement =    0.1753

* Maximum dynamic memory allocated =    90 MB

siesta:                 ==============================
                            Begin CG move =      9
                        ==============================

outcoor: Atomic coordinates (Ang):                          
    0.12066992    0.12066949    0.12066855   1       1  Si
    1.47255528    1.47255568    1.47255533   1       2  Si
    2.92388385    2.92388393    0.14312777   1       3  Si
    4.31405305    4.31405252    1.46378822   1       4  Si
    2.92388381    0.14312876    2.92388361   1       5  Si
    4.31405178    1.46378793    4.31405300   1       6  Si
    0.14312886    2.92388466    2.92388371   1       7  Si
    1.46378808    4.31405167    4.31405293   1       8  Si
 Kpoints in:  196 . Kpoints trimmed:  172

siesta: k-grid: Number of k-points =   172
siesta: k-grid: Cutoff (effective) =    19.502 Ang
siesta: k-grid: Supercell and displacements
siesta: k-grid:    7   0   0      0.000
siesta: k-grid:    0   7   0      0.000
siesta: k-grid:    0   0   7      0.000
Naive supercell factors:     5    5    5

superc: Internal auxiliary supercell:     5 x     5 x     5  =     125
superc: Number of atoms, orbitals, and projectors:   1000  13000  16000

outcell: Unit cell vectors (Ang):
        5.571811   -0.023752   -0.023752
       -0.023752    5.571811   -0.023752
       -0.023752   -0.023752    5.571811

outcell: Cell vector modules (Ang)   :    5.571912    5.571912    5.571912
outcell: Cell angles (23,13,12) (deg):     90.4874     90.4874     90.4874
outcell: Cell volume (Ang**3)        :    172.9678
New_DM. Step:    10
Re-using DM from previous geometry...
Re-using DM without extrapolation (not allowed)
Density Matrix sparsity pattern changed.

InitMesh: MESH =    36 x    36 x    36 =       46656
InitMesh: Mesh cutoff (required, used) =   100.000   115.388 Ry

siesta: iscf   Eharris(eV)      E_KS(eV)   FreeEng(eV)   dDmax  Ef(eV)
siesta:    1    -1030.7153    -1029.0608    -1029.0608  0.0488 -4.9455
siesta:    2    -1031.4540    -1030.0401    -1030.0401  0.1709 -4.9831
siesta:    3    -1030.4922    -1029.8413    -1029.8413  0.0329 -4.9557
siesta:    4    -1030.4922    -1030.3585    -1030.3585  0.0059 -4.9584
siesta:    5    -1030.4920    -1030.4189    -1030.4189  0.0023 -4.9585
siesta:    6    -1030.4919    -1030.4576    -1030.4576  0.0009 -4.9586

siesta: E_KS(eV) =            -1030.4769

siesta: Atomic forces (eV/Ang):
----------------------------------------
   Tot   -0.001584   -0.001587   -0.001598
----------------------------------------
   Max    0.881134
   Res    0.472307    sqrt( Sum f_i^2 / 3N )
----------------------------------------
   Max    0.881134    constrained

Stress-tensor-Voigt (kbar):       20.71       20.71       20.71      -13.33      -13.33      -13.33
(Free)E + p*V (eV/cell)    -1032.7132
Target enthalpy (eV/cell)    -1030.4769

siesta: Stress tensor (static) (eV/Ang**3):
         0.012929   -0.008322   -0.008323
        -0.008322    0.012929   -0.008323
        -0.008323   -0.008323    0.012929

siesta: Pressure (static):        -20.71457424  kBar

siesta: Stress tensor (total) (eV/Ang**3):
         0.012929   -0.008322   -0.008323
        -0.008322    0.012929   -0.008323
        -0.008323   -0.008323    0.012929

siesta: Pressure (total):        -20.71457424  kBar

mulliken: Mulliken Atomic and Orbital Populations:

Species: Si                  
Atom  Qatom  Qorb
               3s      3s      3py     3pz     3px     3py     3pz     3px     
               3Pdxy   3Pdyz   3Pdz2   3Pdxz   3Pdx2-y2
   1  4.007   0.590   0.597   0.238   0.238   0.238   0.530   0.530   0.530
              0.123   0.123   0.074   0.123   0.074
   2  3.997   0.671   0.557   0.265   0.265   0.265   0.500   0.500   0.500
              0.114   0.114   0.066   0.114   0.066
   3  3.999   0.683   0.551   0.268   0.300   0.268   0.495   0.473   0.495
              0.115   0.111   0.062   0.111   0.067
   4  3.999   0.659   0.563   0.264   0.261   0.264   0.503   0.505   0.503
              0.115   0.115   0.067   0.115   0.067
   5  3.999   0.683   0.551   0.300   0.268   0.268   0.473   0.495   0.495
              0.111   0.111   0.066   0.115   0.063
   6  3.999   0.659   0.563   0.261   0.264   0.264   0.505   0.503   0.503
              0.115   0.115   0.067   0.115   0.067
   7  3.999   0.683   0.551   0.268   0.268   0.300   0.495   0.495   0.473
              0.111   0.115   0.066   0.111   0.063
   8  3.999   0.659   0.563   0.264   0.264   0.261   0.503   0.503   0.505
              0.115   0.115   0.067   0.115   0.067

mulliken: Qtot =       32.000

* Maximum dynamic memory allocated =    90 MB

siesta:                 ==============================
                            Begin CG move =     10
                        ==============================

outcoor: Atomic coordinates (Ang):                          
    0.11154216    0.11154194    0.11154163   1       1  Si
    1.48712245    1.48712264    1.48712267   1       2  Si
    2.87185431    2.87185433    0.12382590   1       3  Si
    4.24912438    4.24912424    1.48253819   1       4  Si
    2.87185438    0.12382620    2.87185433   1       5  Si
    4.24912369    1.48253826    4.24912405   1       6  Si
    0.12382634    2.87185482    2.87185441   1       7  Si
    1.48253832    4.24912360    4.24912414   1       8  Si
 Kpoints in:  196 . Kpoints trimmed:  172

siesta: k-grid: Number of k-points =   172
siesta: k-grid: Cutoff (effective) =    19.323 Ang
siesta: k-grid: Supercell and displacements
siesta: k-grid:    7   0   0      0.000
siesta: k-grid:    0   7   0      0.000
siesta: k-grid:    0   0   7      0.000
Naive supercell factors:     5    5    5

superc: Internal auxiliary supercell:     5 x     5 x     5  =     125
superc: Number of atoms, orbitals, and projectors:   1000  13000  16000

outcell: Unit cell vectors (Ang):
        5.520697   -0.034075   -0.034076
       -0.034075    5.520697   -0.034076
       -0.034076   -0.034076    5.520697

outcell: Cell vector modules (Ang)   :    5.520907    5.520907    5.520907
outcell: Cell angles (23,13,12) (deg):     90.7051     90.7051     90.7051
outcell: Cell volume (Ang**3)        :    168.2410
New_DM. Step:    11
Re-using DM from previous geometry...
Re-using DM without extrapolation (not allowed)
Density Matrix sparsity pattern changed.

InitMesh: MESH =    36 x    36 x    36 =       46656
InitMesh: Mesh cutoff (required, used) =   100.000   117.549 Ry

siesta: iscf   Eharris(eV)      E_KS(eV)   FreeEng(eV)   dDmax  Ef(eV)
siesta:    1    -1030.7090    -1031.2462    -1031.2462  0.0346 -5.0201
siesta:    2    -1030.8953    -1030.5301    -1030.5301  0.0757 -5.0028
siesta:    3    -1030.6501    -1030.8080    -1030.8080  0.0159 -5.0060
siesta:    4    -1030.6499    -1030.6242    -1030.6242  0.0016 -5.0003
siesta:    5    -1030.6499    -1030.6289    -1030.6289  0.0011 -5.0010
siesta:    6    -1030.6499    -1030.6433    -1030.6433  0.0003 -5.0020

siesta: E_KS(eV) =            -1030.6471

siesta: Atomic forces (eV/Ang):
----------------------------------------
   Tot   -0.004103   -0.004096   -0.004098
----------------------------------------
   Max    0.174708
   Res    0.078184    sqrt( Sum f_i^2 / 3N )
----------------------------------------
   Max    0.174708    constrained

Stress-tensor-Voigt (kbar):        0.81        0.81        0.81       -8.84       -8.84       -8.84
(Free)E + p*V (eV/cell)    -1030.7319
Target enthalpy (eV/cell)    -1030.6471

siesta: Stress tensor (static) (eV/Ang**3):
         0.000504   -0.005519   -0.005520
        -0.005519    0.000504   -0.005520
        -0.005520   -0.005520    0.000504

siesta: Pressure (static):         -0.80734198  kBar

siesta: Stress tensor (total) (eV/Ang**3):
         0.000504   -0.005519   -0.005520
        -0.005519    0.000504   -0.005520
        -0.005520   -0.005520    0.000504

siesta: Pressure (total):         -0.80734198  kBar

mulliken: Mulliken Atomic and Orbital Populations:

Species: Si                  
Atom  Qatom  Qorb
               3s      3s      3py     3pz     3px     3py     3pz     3px     
               3Pdxy   3Pdyz   3Pdz2   3Pdxz   3Pdx2-y2
   1  4.001   0.640   0.571   0.242   0.242   0.242   0.522   0.522   0.522
              0.119   0.119   0.070   0.119   0.070
   2  3.999   0.633   0.575   0.242   0.242   0.242   0.521   0.521   0.521
              0.119   0.119   0.071   0.119   0.071
   3  4.000   0.645   0.569   0.243   0.247   0.243   0.521   0.518   0.521
              0.119   0.118   0.069   0.118   0.070
   4  4.000   0.645   0.569   0.246   0.250   0.246   0.518   0.515   0.518
              0.118   0.118   0.069   0.118   0.070
   5  4.000   0.645   0.569   0.247   0.243   0.243   0.518   0.520   0.520
              0.118   0.118   0.070   0.119   0.070
   6  4.000   0.645   0.569   0.250   0.246   0.246   0.515   0.518   0.518
              0.118   0.118   0.070   0.118   0.069
   7  4.000   0.645   0.569   0.243   0.243   0.247   0.520   0.520   0.518
              0.118   0.119   0.070   0.118   0.070
   8  4.000   0.645   0.569   0.246   0.246   0.250   0.518   0.518   0.515
              0.118   0.118   0.070   0.118   0.069

mulliken: Qtot =       32.000

cgvc: Finished line minimization    3.  Mean atomic displacement =    0.0806

* Maximum dynamic memory allocated =    90 MB

siesta:                 ==============================
                            Begin CG move =     11
                        ==============================

outcoor: Atomic coordinates (Ang):                          
    0.13453058    0.13453137    0.13453440   1       1  Si
    1.50172248    1.50172118    1.50172189   1       2  Si
    2.91648726    2.91648684    0.12525567   1       3  Si
    4.29367034    4.29367149    1.56321616   1       4  Si
    2.91648654    0.12525315    2.91648761   1       5  Si
    4.29367227    1.56321745    4.29366996   1       6  Si
    0.12525130    2.91648628    2.91648785   1       7  Si
    1.56321787    4.29367215    4.29366933   1       8  Si
 Kpoints in:  196 . Kpoints trimmed:  172

siesta: k-grid: Number of k-points =   172
siesta: k-grid: Cutoff (effective) =    19.338 Ang
siesta: k-grid: Supercell and displacements
siesta: k-grid:    7   0   0      0.000
siesta: k-grid:    0   7   0      0.000
siesta: k-grid:    0   0   7      0.000
Naive supercell factors:     5    5    5

superc: Internal auxiliary supercell:     5 x     5 x     5  =     125
superc: Number of atoms, orbitals, and projectors:   1000  13000  16000

outcell: Unit cell vectors (Ang):
        5.524997    0.010532    0.010533
        0.010532    5.524997    0.010533
        0.010533    0.010533    5.524997

outcell: Cell vector modules (Ang)   :    5.525017    5.525017    5.525017
outcell: Cell angles (23,13,12) (deg):     89.7813     89.7813     89.7814
outcell: Cell volume (Ang**3)        :    168.6519
New_DM. Step:    12
Re-using DM from previous geometry...
Re-using DM without extrapolation (not allowed)
Density Matrix sparsity pattern changed.

InitMesh: MESH =    36 x    36 x    36 =       46656
InitMesh: Mesh cutoff (required, used) =   100.000   117.342 Ry

siesta: iscf   Eharris(eV)      E_KS(eV)   FreeEng(eV)   dDmax  Ef(eV)
siesta:    1    -1030.6364    -1030.5508    -1030.5508  0.0301 -5.0234
siesta:    2    -1030.6919    -1030.5771    -1030.5771  0.0382 -5.0304
siesta:    3    -1030.6161    -1030.5854    -1030.5854  0.0070 -5.0258
siesta:    4    -1030.6159    -1030.6032    -1030.6032  0.0004 -5.0260

siesta: E_KS(eV) =            -1030.6071

siesta: Atomic forces (eV/Ang):
----------------------------------------
   Tot    0.001316    0.001314    0.001323
----------------------------------------
   Max    0.617101
   Res    0.301737    sqrt( Sum f_i^2 / 3N )
----------------------------------------
   Max    0.617101    constrained

Stress-tensor-Voigt (kbar):        1.47        1.47        1.47        4.98        4.98        4.98
(Free)E + p*V (eV/cell)    -1030.7616
Target enthalpy (eV/cell)    -1030.6071

siesta: Stress tensor (static) (eV/Ang**3):
         0.000916    0.003109    0.003110
         0.003109    0.000916    0.003110
         0.003110    0.003110    0.000916

siesta: Pressure (static):         -1.46769329  kBar

siesta: Stress tensor (total) (eV/Ang**3):
         0.000916    0.003109    0.003110
         0.003109    0.000916    0.003110
         0.003110    0.003110    0.000916

siesta: Pressure (total):         -1.46769329  kBar

mulliken: Mulliken Atomic and Orbital Populations:

Species: Si                  
Atom  Qatom  Qorb
               3s      3s      3py     3pz     3px     3py     3pz     3px     
               3Pdxy   3Pdyz   3Pdz2   3Pdxz   3Pdx2-y2
   1  3.999   0.647   0.568   0.244   0.244   0.244   0.520   0.520   0.520
              0.118   0.118   0.069   0.118   0.069
   2  3.998   0.674   0.555   0.257   0.257   0.257   0.507   0.507   0.507
              0.115   0.115   0.067   0.115   0.067
   3  4.000   0.641   0.571   0.246   0.247   0.246   0.518   0.518   0.518
              0.118   0.118   0.070   0.118   0.070
   4  4.001   0.631   0.576   0.248   0.234   0.248   0.518   0.527   0.518
              0.118   0.120   0.072   0.120   0.069
   5  4.000   0.641   0.571   0.247   0.246   0.246   0.518   0.518   0.518
              0.118   0.118   0.070   0.118   0.070
   6  4.001   0.631   0.576   0.234   0.248   0.248   0.527   0.518   0.518
              0.120   0.120   0.070   0.118   0.071
   7  4.000   0.641   0.571   0.246   0.246   0.247   0.518   0.518   0.518
              0.118   0.118   0.070   0.118   0.070
   8  4.001   0.631   0.576   0.248   0.248   0.234   0.518   0.518   0.527
              0.120   0.118   0.070   0.120   0.071

mulliken: Qtot =       32.000

* Maximum dynamic memory allocated =    90 MB

siesta:                 ==============================
                            Begin CG move =     12
                        ==============================

outcoor: Atomic coordinates (Ang):                          
    0.11864742    0.11864751    0.11864825   1       1  Si
    1.49172301    1.49172273    1.49172297   1       2  Si
    2.88584272    2.88584260    0.12421846   1       3  Si
    4.26303385    4.26303412    1.50776054   1       4  Si
    2.88584254    0.12421789    2.88584285   1       5  Si
    4.26303399    1.50776099    4.26303351   1       6  Si
    0.12421740    2.88584277    2.88584298   1       7  Si
    1.50776116    4.26303389    4.26303337   1       8  Si
 Kpoints in:  196 . Kpoints trimmed:  172

siesta: k-grid: Number of k-points =   172
siesta: k-grid: Cutoff (effective) =    19.327 Ang
siesta: k-grid: Supercell and displacements
siesta: k-grid:    7   0   0      0.000
siesta: k-grid:    0   7   0      0.000
siesta: k-grid:    0   0   7      0.000
Naive supercell factors:     5    5    5

superc: Internal auxiliary supercell:     5 x     5 x     5  =     125
superc: Number of atoms, orbitals, and projectors:   1000  13000  16000

outcell: Unit cell vectors (Ang):
        5.522040   -0.020140   -0.020140
       -0.020140    5.522040   -0.020140
       -0.020140   -0.020140    5.522040

outcell: Cell vector modules (Ang)   :    5.522114    5.522114    5.522114
outcell: Cell angles (23,13,12) (deg):     90.4172     90.4172     90.4172
outcell: Cell volume (Ang**3)        :    168.3764
New_DM. Step:    13
Re-using DM from previous geometry...
Re-using DM without extrapolation (not allowed)
Density Matrix sparsity pattern changed.

InitMesh: MESH =    36 x    36 x    36 =       46656
InitMesh: Mesh cutoff (required, used) =   100.000   117.474 Ry

siesta: iscf   Eharris(eV)      E_KS(eV)   FreeEng(eV)   dDmax  Ef(eV)
siesta:    1    -1030.6744    -1030.6712    -1030.6712  0.0308 -5.0071
siesta:    2    -1030.7001    -1030.6461    -1030.6461  0.0282 -5.0057
siesta:    3    -1030.6646    -1030.6567    -1030.6567  0.0050 -5.0061
siesta:    4    -1030.6645    -1030.6578    -1030.6578  0.0003 -5.0058

siesta: E_KS(eV) =            -1030.6599

siesta: Atomic forces (eV/Ang):
----------------------------------------
   Tot   -0.008195   -0.008191   -0.008207
----------------------------------------
   Max    0.107157
   Res    0.061179    sqrt( Sum f_i^2 / 3N )
----------------------------------------
   Max    0.107157    constrained

Stress-tensor-Voigt (kbar):        1.59        1.59        1.59       -4.38       -4.38       -4.38
(Free)E + p*V (eV/cell)    -1030.8271
Target enthalpy (eV/cell)    -1030.6599

siesta: Stress tensor (static) (eV/Ang**3):
         0.000993   -0.002735   -0.002735
        -0.002735    0.000993   -0.002734
        -0.002735   -0.002734    0.000993

siesta: Pressure (static):         -1.59158473  kBar

siesta: Stress tensor (total) (eV/Ang**3):
         0.000993   -0.002735   -0.002735
        -0.002735    0.000993   -0.002734
        -0.002735   -0.002734    0.000993

siesta: Pressure (total):         -1.59158473  kBar

mulliken: Mulliken Atomic and Orbital Populations:

Species: Si                  
Atom  Qatom  Qorb
               3s      3s      3py     3pz     3px     3py     3pz     3px     
               3Pdxy   3Pdyz   3Pdz2   3Pdxz   3Pdx2-y2
   1  4.001   0.643   0.570   0.244   0.244   0.244   0.521   0.521   0.521
              0.119   0.119   0.070   0.119   0.070
   2  3.997   0.646   0.569   0.246   0.246   0.246   0.517   0.517   0.517
              0.118   0.118   0.069   0.118   0.069
   3  3.999   0.643   0.570   0.244   0.246   0.244   0.520   0.519   0.520
              0.118   0.118   0.069   0.118   0.070
   4  4.001   0.641   0.571   0.246   0.244   0.246   0.519   0.520   0.519
              0.118   0.118   0.070   0.118   0.070
   5  3.999   0.643   0.570   0.246   0.244   0.244   0.519   0.520   0.520
              0.118   0.118   0.070   0.118   0.070
   6  4.001   0.641   0.571   0.244   0.246   0.246   0.520   0.519   0.519
              0.118   0.118   0.070   0.118   0.070
   7  3.999   0.643   0.570   0.244   0.244   0.246   0.520   0.520   0.519
              0.118   0.118   0.070   0.118   0.070
   8  4.001   0.641   0.571   0.246   0.246   0.244   0.519   0.519   0.520
              0.118   0.118   0.070   0.118   0.070

mulliken: Qtot =       32.000

cgvc: Finished line minimization    4.  Mean atomic displacement =    0.0252

* Maximum dynamic memory allocated =    90 MB

siesta:                 ==============================
                            Begin CG move =     13
                        ==============================

outcoor: Atomic coordinates (Ang):                          
    0.12619108    0.12619110    0.12619053   1       1  Si
    1.50625594    1.50625615    1.50625599   1       2  Si
    2.89717102    2.89717073    0.14066373   1       3  Si
    4.27333482    4.27333522    1.52432040   1       4  Si
    2.89717180    0.14066494    2.89717143   1       5  Si
    4.27333415    1.52432027    4.27333498   1       6  Si
    0.14066476    2.89717187    2.89717099   1       7  Si
    1.52432045    4.27333435    4.27333468   1       8  Si
 Kpoints in:  196 . Kpoints trimmed:  172

siesta: k-grid: Number of k-points =   172
siesta: k-grid: Cutoff (effective) =    19.320 Ang
siesta: k-grid: Supercell and displacements
siesta: k-grid:    7   0   0      0.000
siesta: k-grid:    0   7   0      0.000
siesta: k-grid:    0   0   7      0.000
Naive supercell factors:     5    5    5

superc: Internal auxiliary supercell:     5 x     5 x     5  =     125
superc: Number of atoms, orbitals, and projectors:   1000  13000  16000

outcell: Unit cell vectors (Ang):
        5.520000   -0.003592   -0.003592
       -0.003592    5.520000   -0.003592
       -0.003592   -0.003592    5.520000

outcell: Cell vector modules (Ang)   :    5.520002    5.520002    5.520002
outcell: Cell angles (23,13,12) (deg):     90.0745     90.0745     90.0745
outcell: Cell volume (Ang**3)        :    168.1964
New_DM. Step:    14
Re-using DM from previous geometry...
Re-using DM without extrapolation (not allowed)
Density Matrix sparsity pattern changed.

InitMesh: MESH =    36 x    36 x    36 =       46656
InitMesh: Mesh cutoff (required, used) =   100.000   117.552 Ry

siesta: iscf   Eharris(eV)      E_KS(eV)   FreeEng(eV)   dDmax  Ef(eV)
siesta:    1    -1030.6735    -1030.6872    -1030.6872  0.0033 -5.0299
siesta:    2    -1030.6742    -1030.6725    -1030.6725  0.0053 -5.0300
siesta:    3    -1030.6731    -1030.6737    -1030.6737  0.0006 -5.0300

siesta: E_KS(eV) =            -1030.6729

siesta: Atomic forces (eV/Ang):
----------------------------------------
   Tot   -0.002061   -0.002062   -0.002060
----------------------------------------
   Max    0.055633
   Res    0.032062    sqrt( Sum f_i^2 / 3N )
----------------------------------------
   Max    0.055633    constrained

Stress-tensor-Voigt (kbar):        0.49        0.49        0.49       -0.96       -0.96       -0.96
(Free)E + p*V (eV/cell)    -1030.7238
Target enthalpy (eV/cell)    -1030.6729

siesta: Stress tensor (static) (eV/Ang**3):
         0.000303   -0.000599   -0.000599
        -0.000599    0.000303   -0.000599
        -0.000599   -0.000599    0.000303

siesta: Pressure (static):         -0.48539813  kBar

siesta: Stress tensor (total) (eV/Ang**3):
         0.000303   -0.000599   -0.000599
        -0.000599    0.000303   -0.000599
        -0.000599   -0.000599    0.000303

siesta: Pressure (total):         -0.48539813  kBar

mulliken: Mulliken Atomic and Orbital Populations:

Species: Si                  
Atom  Qatom  Qorb
               3s      3s      3py     3pz     3px     3py     3pz     3px     
               3Pdxy   3Pdyz   3Pdz2   3Pdxz   3Pdx2-y2
   1  4.000   0.646   0.568   0.244   0.244   0.244   0.520   0.520   0.520
              0.118   0.118   0.070   0.118   0.070
   2  3.998   0.645   0.569   0.246   0.246   0.246   0.518   0.518   0.518
              0.118   0.118   0.069   0.118   0.069
   3  4.000   0.641   0.571   0.244   0.243   0.244   0.520   0.521   0.520
              0.118   0.119   0.070   0.119   0.070
   4  4.000   0.639   0.572   0.245   0.243   0.245   0.520   0.521   0.520
              0.118   0.119   0.070   0.119   0.070
   5  4.000   0.641   0.571   0.243   0.244   0.244   0.521   0.520   0.520
              0.119   0.119   0.070   0.118   0.070
   6  4.000   0.639   0.572   0.243   0.245   0.245   0.521   0.520   0.520
              0.119   0.119   0.070   0.118   0.070
   7  4.000   0.641   0.571   0.244   0.244   0.243   0.520   0.520   0.521
              0.119   0.118   0.070   0.119   0.070
   8  4.000   0.639   0.572   0.245   0.245   0.243   0.520   0.520   0.521
              0.119   0.118   0.070   0.119   0.070

mulliken: Qtot =       32.000

* Maximum dynamic memory allocated =    90 MB

siesta:                 ==============================
                            Begin CG move =     14
                        ==============================

outcoor: Atomic coordinates (Ang):                          
    0.13842195    0.13842185    0.13841922   1       1  Si
    1.52965115    1.52965215    1.52965136   1       2  Si
    2.91532149    2.91532093    0.16705938   1       3  Si
    4.28964870    4.28964930    1.55069025   1       4  Si
    2.91532382    0.16706347    2.91532237   1       5  Si
    4.28964675    1.55068919    4.28964964   1       6  Si
    0.16706375    2.91532363    2.91532102   1       7  Si
    1.55068939    4.28964743    4.28964908   1       8  Si
 Kpoints in:  196 . Kpoints trimmed:  172

siesta: k-grid: Number of k-points =   172
siesta: k-grid: Cutoff (effective) =    19.309 Ang
siesta: k-grid: Supercell and displacements
siesta: k-grid:    0   7   0      0.000
siesta: k-grid:    7   0   0      0.000
siesta: k-grid:    0   0   7      0.000
Naive supercell factors:     5    5    5

superc: Internal auxiliary supercell:     5 x     5 x     5  =     125
superc: Number of atoms, orbitals, and projectors:   1000  13000  16000

outcell: Unit cell vectors (Ang):
        5.516735    0.022886    0.022885
        0.022886    5.516735    0.022885
        0.022885    0.022885    5.516735

outcell: Cell vector modules (Ang)   :    5.516829    5.516829    5.516830
outcell: Cell angles (23,13,12) (deg):     89.5237     89.5237     89.5237
outcell: Cell volume (Ang**3)        :    167.8896
New_DM. Step:    15
Re-using DM from previous geometry...
Re-using DM without extrapolation (not allowed)
Density Matrix sparsity pattern changed.

InitMesh: MESH =    36 x    36 x    36 =       46656
InitMesh: Mesh cutoff (required, used) =   100.000   117.703 Ry

siesta: iscf   Eharris(eV)      E_KS(eV)   FreeEng(eV)   dDmax  Ef(eV)
siesta:    1    -1030.6643    -1030.7114    -1030.7114  0.0056 -5.0173
siesta:    2    -1030.6669    -1030.6612    -1030.6612  0.0094 -5.0152
[...]
         11.07  11.18  11.44  11.44  11.58  11.58  11.92  12.67  13.14  13.15
         14.17  14.28  14.28  14.79  15.41  15.42  15.51  16.24  16.54  16.90
         16.90  17.54  18.32  18.32  19.63  19.63  22.16  22.17  22.83  23.13
         23.60  23.60  23.72  24.32  24.97  26.03  28.66  29.11  37.36  40.60
         40.61  47.55  52.41  52.41  54.88  63.33  64.60  67.60  67.61  67.81
         75.04  88.36  97.32  97.35
 157  1 -15.91 -15.36 -14.44 -14.18 -12.04 -11.75 -10.64  -9.89  -9.23  -8.97
         -8.06  -7.66  -7.53  -7.41  -7.14  -6.41  -3.14  -3.07  -2.80  -2.27
         -2.04  -1.87  -1.37  -1.01  -0.80  -0.78   0.07   0.08   0.11   0.98
          1.21   1.22   1.94   2.33   2.96   3.76   4.16   4.32   4.73   5.47
          5.50   5.85   7.49   8.00   8.01   8.16   9.17   9.21   9.31   9.84
         10.00  10.55  11.40  11.45  11.62  12.16  12.38  12.78  12.84  12.89
         13.72  14.48  14.66  14.66  15.13  15.90  16.07  16.09  17.14  17.27
         17.55  17.94  18.53  18.98  19.23  20.30  21.32  22.35  22.47  23.63
         23.73  24.18  25.15  25.39  26.89  27.70  32.99  35.93  36.87  38.35
         43.29  52.57  53.82  55.68  56.92  59.13  63.87  63.95  66.76  69.60
         82.88  86.13  93.83 100.06
 158  1 -15.53 -15.03 -15.03 -14.61 -11.71 -11.22 -11.22 -10.60  -8.94  -8.52
         -8.52  -7.99  -7.00  -6.92  -6.92  -6.38  -3.21  -2.82  -2.59  -2.59
         -1.86  -1.86  -1.46  -1.39  -0.54  -0.48  -0.26  -0.26   0.69   0.69
          1.25   1.61   2.20   2.50   2.73   3.02   3.02   4.22   4.22   5.09
          5.87   7.54   7.54   8.19   8.27   8.27   8.95   9.09   9.66   9.66
          9.81  10.12  10.34  11.39  11.56  11.56  12.96  13.00  13.00  13.52
         14.25  14.25  14.33  14.86  15.19  15.57  15.57  15.66  17.63  18.37
         18.37  18.90  19.68  19.70  19.70  20.24  21.16  21.16  21.56  21.67
         26.57  26.57  26.69  26.70  27.92  34.74  34.74  40.80  41.39  41.41
         42.22  47.99  53.45  53.45  58.02  59.12  59.81  71.88  71.88  78.20
         79.57  83.21  83.23 102.30
 159  1 -15.35 -14.94 -14.93 -14.66 -12.07 -11.78 -11.77 -11.29  -8.01  -7.67
         -7.67  -7.09  -6.89  -6.84  -6.84  -6.44  -3.47  -3.17  -3.04  -3.03
         -2.08  -2.08  -1.81  -1.77  -1.61  -1.19  -1.13  -1.12   1.95   1.96
          2.57   2.81   2.86   3.48   3.86   4.05   4.06   4.57   4.57   4.66
          5.36   6.81   6.82   6.99   7.01   7.42   7.90   8.22   8.73   8.73
          8.81   8.91   9.21   9.50   9.91   9.93  14.38  14.57  14.60  15.51
         15.53  15.55  15.81  15.95  16.04  16.21  16.62  16.63  17.56  18.51
         18.54  18.56  18.77  18.79  19.34  19.56  20.22  20.23  20.83  21.13
         27.47  27.51  27.53  28.53  29.15  31.15  31.16  32.31  40.58  42.29
         42.31  47.62  55.85  55.88  59.45  60.15  61.64  74.40  74.42  78.66
         83.83  83.88  87.54  99.28
 160  1 -15.69 -15.18 -14.50 -14.49 -12.04 -12.03 -11.25 -10.63  -8.46  -8.46
         -7.61  -7.28  -7.27  -7.07  -6.68  -6.67  -3.35  -3.22  -2.96  -2.94
         -2.05  -1.71  -1.69  -1.59  -1.42  -0.82  -0.13  -0.12   0.48   1.25
          1.49   1.50   3.15   3.16   3.57   3.63   4.83   4.97   5.22   5.38
          5.39   5.48   6.37   6.39   7.05   8.63   8.77   8.79   8.82   8.88
          9.05   9.06  10.64  10.65  10.71  11.42  13.75  13.77  14.03  14.29
         14.31  14.60  15.34  15.37  16.30  16.34  16.34  16.56  17.32  17.32
         17.82  18.11  18.11  19.15  19.15  19.36  20.24  21.31  21.58  22.75
         25.49  25.52  25.77  27.37  29.13  29.13  32.64  33.03  34.89  34.96
         40.26  44.92  54.66  54.89  56.76  62.56  64.14  66.62  66.65  72.57
         84.66  84.68  86.27  96.16
 161  1 -15.90 -15.36 -14.44 -14.19 -12.04 -11.75 -10.63  -9.88  -9.23  -8.98
         -8.07  -7.65  -7.52  -7.42  -7.14  -6.42  -3.13  -3.07  -2.81  -2.29
         -2.04  -1.87  -1.36  -1.01  -0.78  -0.77   0.07   0.10   0.12   0.99
          1.22   1.23   1.92   2.34   2.96   3.74   4.15   4.30   4.71   5.47
          5.49   5.85   7.46   8.00   8.02   8.14   9.17   9.19   9.33   9.85
         10.00  10.55  11.42  11.47  11.62  12.18  12.42  12.77  12.85  12.89
         13.76  14.48  14.65  14.66  15.12  15.87  16.06  16.07  17.14  17.26
         17.54  17.94  18.53  18.97  19.21  20.29  21.32  22.34  22.46  23.66
         23.75  24.18  25.14  25.37  26.86  27.70  32.89  35.94  36.86  38.21
         43.23  52.61  54.01  55.73  56.88  59.21  63.80  63.90  66.67  69.60
         82.67  86.07  93.65 100.13
 162  1 -15.98 -15.42 -14.43 -14.07 -11.97 -11.55 -10.28  -9.58  -9.42  -9.26
         -8.41  -7.92  -7.79  -7.61  -7.14  -6.33  -3.22  -2.77  -2.40  -2.12
         -1.94  -1.59  -1.57  -1.19  -0.84  -0.66  -0.45   0.03   0.73   0.78
          1.17   1.73   2.04   2.09   2.89   2.96   3.22   3.80   4.56   5.66
          5.97   6.05   7.76   8.54   8.72   9.11   9.29   9.85   9.89  10.17
         10.56  10.75  10.91  10.95  11.71  11.74  12.10  12.69  12.88  13.30
         13.63  13.98  14.24  14.29  15.01  15.05  15.48  15.82  16.97  17.08
         17.42  18.29  18.92  18.93  20.19  21.01  21.62  22.54  22.60  23.00
         23.54  23.68  24.09  25.45  26.57  27.10  35.72  38.21  39.69  44.79
         46.29  46.88  47.94  54.73  55.98  63.43  66.17  66.73  67.85  73.77
         75.91  84.44  89.42  92.16
 163  1 -15.91 -15.36 -14.44 -14.18 -12.04 -11.75 -10.64  -9.89  -9.23  -8.97
         -8.06  -7.66  -7.53  -7.41  -7.14  -6.41  -3.14  -3.07  -2.80  -2.27
         -2.04  -1.87  -1.37  -1.01  -0.80  -0.78   0.07   0.08   0.11   0.98
          1.21   1.22   1.94   2.33   2.96   3.76   4.16   4.32   4.73   5.47
          5.50   5.85   7.49   8.00   8.01   8.16   9.17   9.21   9.31   9.84
         10.00  10.55  11.40  11.45  11.62  12.16  12.38  12.78  12.84  12.89
         13.72  14.48  14.66  14.66  15.13  15.90  16.07  16.09  17.14  17.27
         17.55  17.94  18.53  18.98  19.23  20.30  21.32  22.35  22.47  23.63
         23.73  24.18  25.15  25.39  26.89  27.70  32.99  35.93  36.87  38.35
         43.29  52.57  53.82  55.68  56.92  59.13  63.87  63.95  66.76  69.60
         82.88  86.13  93.83 100.06
 164  1 -15.69 -15.18 -14.49 -14.49 -12.04 -12.04 -11.25 -10.63  -8.46  -8.46
         -7.61  -7.28  -7.28  -7.07  -6.67  -6.66  -3.34  -3.22  -2.95  -2.95
         -2.05  -1.70  -1.70  -1.61  -1.42  -0.81  -0.14  -0.13   0.45   1.24
          1.47   1.48   3.16   3.16   3.58   3.63   4.83   4.99   5.23   5.40
          5.41   5.50   6.41   6.41   7.07   8.60   8.78   8.78   8.82   8.87
          9.06   9.07  10.62  10.62  10.68  11.40  13.73  13.76  14.04  14.29
         14.29  14.59  15.36  15.36  16.31  16.35  16.36  16.59  17.34  17.34
         17.82  18.12  18.12  19.15  19.16  19.38  20.25  21.33  21.60  22.71
         25.50  25.50  25.80  27.44  29.14  29.14  32.72  33.06  34.96  34.97
         40.30  44.88  54.82  54.82  56.86  62.75  63.92  66.75  66.75  72.54
         84.71  84.72  86.42  96.01
 165  1 -15.36 -14.93 -14.93 -14.67 -12.07 -11.78 -11.78 -11.29  -8.01  -7.67
         -7.67  -7.08  -6.88  -6.84  -6.84  -6.43  -3.45  -3.17  -3.04  -3.04
         -2.09  -2.09  -1.80  -1.77  -1.62  -1.18  -1.13  -1.13   1.93   1.93
          2.57   2.81   2.84   3.49   3.88   4.06   4.06   4.58   4.58   4.67
          5.35   6.83   6.83   7.02   7.02   7.43   7.88   8.23   8.71   8.75
          8.80   8.91   9.19   9.48   9.90   9.90  14.37  14.59  14.59  15.52
         15.52  15.54  15.81  15.93  16.05  16.21  16.65  16.65  17.58  18.50
         18.53  18.54  18.81  18.81  19.36  19.58  20.22  20.22  20.84  21.08
         27.49  27.50  27.57  28.54  29.15  31.14  31.14  32.36  40.57  42.30
         42.31  47.66  55.78  55.79  59.58  60.30  61.83  74.43  74.44  78.63
         83.86  83.86  87.52  99.88
 166  1 -15.09 -14.84 -14.83 -14.83 -12.13 -12.13 -12.13 -11.84  -7.04  -7.04
         -7.03  -6.72  -6.72  -6.71  -6.56  -6.56  -3.96  -3.57  -3.57  -3.55
         -2.01  -2.01  -2.00  -1.92  -1.90  -1.70  -1.70  -1.69   3.13   3.14
          3.14   3.42   4.35   4.37   4.37   4.38   4.38   5.40   5.48   5.48
          5.49   6.17   6.17   6.18   6.26   6.27   6.27   7.45   7.47   7.75
          7.76   7.76   8.58   8.61   8.62   8.78  15.98  16.10  16.13  16.13
         16.63  16.65  16.82  16.83  16.83  17.27  17.27  17.28  18.22  18.27
         18.27  19.08  19.08  19.09  19.40  19.40  19.41  19.85  19.85  20.87
         28.22  28.22  28.27  29.19  29.26  29.45  29.45  29.46  52.70  52.70
         52.82  56.37  65.44  65.45  65.80  67.06  67.18  67.19  78.46  78.87
         97.22  97.30  97.33 101.42
 167  1 -15.35 -14.93 -14.93 -14.68 -12.06 -11.78 -11.78 -11.28  -8.01  -7.67
         -7.67  -7.09  -6.88  -6.84  -6.84  -6.44  -3.46  -3.16  -3.05  -3.04
         -2.08  -2.08  -1.80  -1.78  -1.61  -1.18  -1.13  -1.13   1.96   1.96
          2.58   2.82   2.85   3.48   3.86   4.06   4.06   4.56   4.56   4.65
          5.33   6.81   6.82   7.02   7.02   7.43   7.88   8.22   8.74   8.74
          8.76   8.90   9.22   9.51   9.93   9.94  14.39  14.60  14.60  15.49
         15.53  15.55  15.81  15.95  16.03  16.19  16.62  16.62  17.55  18.50
         18.53  18.56  18.81  18.81  19.35  19.56  20.21  20.22  20.84  21.11
         27.49  27.49  27.56  28.51  29.16  31.09  31.09  32.36  40.60  42.29
         42.30  47.69  55.64  55.65  59.50  60.37  61.68  74.40  74.41  78.56
         83.74  83.75  87.65  99.66
 168  1 -15.53 -15.03 -15.03 -14.62 -11.70 -11.22 -11.22 -10.59  -8.94  -8.52
         -8.52  -7.99  -7.00  -6.92  -6.92  -6.38  -3.21  -2.83  -2.60  -2.59
         -1.86  -1.86  -1.46  -1.40  -0.53  -0.48  -0.25  -0.25   0.70   0.70
          1.26   1.61   2.19   2.49   2.74   3.00   3.00   4.22   4.22   5.08
          5.85   7.54   7.54   8.20   8.26   8.27   8.96   9.09   9.63   9.64
          9.84  10.12  10.32  11.41  11.58  11.59  12.97  13.03  13.03  13.50
         14.25  14.25  14.35  14.86  15.18  15.54  15.55  15.65  17.63  18.37
         18.37  18.89  19.66  19.70  19.70  20.23  21.15  21.15  21.55  21.69
         26.56  26.56  26.69  26.70  27.91  34.69  34.69  40.81  41.32  41.34
         42.20  47.99  53.47  53.47  57.94  59.15  59.82  71.70  71.71  78.16
         79.64  83.06  83.08 102.23
 169  1 -15.59 -15.07 -15.07 -14.61 -11.44 -10.87 -10.87 -10.16  -9.40  -8.98
         -8.98  -8.52  -7.04  -6.95  -6.95  -6.37  -3.26  -2.65  -2.55  -2.55
         -1.36  -1.36  -1.22  -0.81  -0.20  -0.20   0.01   0.37   0.52   0.53
          0.54   1.07   1.08   1.78   2.21   2.21   2.70   4.25   4.25   5.33
          6.09   7.74   7.74   8.29   9.04   9.05   9.24   9.93  10.09  10.72
         10.72  11.23  11.23  11.45  11.63  12.16  12.44  12.69  12.90  13.30
         13.30  13.39  13.39  13.96  14.51  14.63  14.63  15.32  17.47  18.33
         18.33  19.58  19.72  20.19  20.19  20.75  21.62  21.62  21.80  22.16
         25.38  26.01  26.01  26.19  27.46  36.41  36.41  42.13  49.17  49.18
         49.31  49.31  50.36  57.11  60.45  61.24  63.86  65.44  65.49  71.85
         77.60  77.86  77.88  78.72
 170  1 -15.53 -15.03 -15.03 -14.61 -11.71 -11.22 -11.22 -10.60  -8.94  -8.52
         -8.52  -7.99  -7.00  -6.92  -6.92  -6.38  -3.21  -2.82  -2.59  -2.59
         -1.86  -1.86  -1.46  -1.39  -0.54  -0.48  -0.26  -0.26   0.69   0.69
          1.25   1.61   2.20   2.50   2.73   3.02   3.02   4.22   4.22   5.09
          5.87   7.54   7.54   8.19   8.27   8.27   8.95   9.09   9.66   9.66
          9.81  10.12  10.34  11.39  11.56  11.56  12.96  13.00  13.00  13.52
         14.25  14.25  14.33  14.86  15.19  15.57  15.57  15.66  17.63  18.37
         18.37  18.90  19.68  19.70  19.70  20.24  21.16  21.16  21.56  21.67
         26.57  26.57  26.69  26.70  27.92  34.74  34.74  40.80  41.39  41.41
         42.22  47.99  53.45  53.45  58.02  59.12  59.81  71.88  71.88  78.20
         79.57  83.21  83.23 102.30
 171  1 -15.36 -14.93 -14.93 -14.67 -12.07 -11.78 -11.78 -11.29  -8.01  -7.67
         -7.67  -7.08  -6.88  -6.84  -6.84  -6.43  -3.45  -3.17  -3.04  -3.04
         -2.09  -2.09  -1.80  -1.77  -1.62  -1.18  -1.13  -1.13   1.93   1.93
          2.57   2.81   2.84   3.49   3.88   4.06   4.06   4.58   4.58   4.67
          5.35   6.83   6.83   7.02   7.02   7.43   7.88   8.23   8.71   8.75
          8.80   8.91   9.19   9.48   9.90   9.90  14.37  14.59  14.59  15.52
         15.52  15.54  15.81  15.93  16.05  16.21  16.65  16.65  17.58  18.50
         18.53  18.54  18.81  18.81  19.36  19.58  20.22  20.22  20.84  21.08
         27.49  27.50  27.57  28.54  29.15  31.14  31.14  32.36  40.57  42.30
         42.31  47.66  55.78  55.79  59.58  60.30  61.83  74.43  74.44  78.63
         83.86  83.86  87.52  99.88
 172  1 -15.10 -14.83 -14.83 -14.83 -12.14 -12.14 -12.13 -11.84  -7.04  -7.04
         -7.04  -6.72  -6.72  -6.72  -6.55  -6.55  -3.94  -3.57  -3.57  -3.57
         -2.02  -2.02  -2.02  -1.90  -1.90  -1.69  -1.69  -1.69   3.12   3.12
          3.12   3.43   4.36   4.36   4.37   4.38   4.38   5.41   5.49   5.49
          5.49   6.20   6.20   6.20   6.28   6.28   6.28   7.45   7.45   7.74
          7.74   7.74   8.60   8.60   8.60   8.75  15.95  16.13  16.13  16.13
         16.64  16.64  16.81  16.81  16.81  17.29  17.29  17.29  18.28  18.28
         18.28  19.09  19.09  19.09  19.39  19.39  19.39  19.86  19.86  20.81
         28.27  28.27  28.27  29.26  29.26  29.41  29.41  29.42  52.70  52.71
         52.71  56.36  65.60  65.60  65.68  67.01  67.05  67.05  79.10  79.10
         97.44  97.44  97.46 101.71
siesta: Fermi energy =      -5.031315 eV

siesta: Program's energy decomposition (eV):
siesta: Ebs     =      -331.677122
siesta: Eions   =      1510.441798
siesta: Ena     =       471.312093
siesta: Ekin    =       319.300903
siesta: Enl     =       127.093986
siesta: DEna    =         6.603064
siesta: DUscf   =         1.519392
siesta: DUext   =         0.000000
siesta: Exc     =      -446.060945
siesta: eta*DQ  =         0.000000
siesta: Emadel  =         0.000000
siesta: Emeta   =         0.000000
siesta: Emolmec =         0.000000
siesta: Ekinion =         0.000000
siesta: Eharris =     -1030.674428
siesta: Etot    =     -1030.673305
siesta: FreeEng =     -1030.673305

siesta: Final energy (eV):
siesta:  Band Struct. =    -331.677122
siesta:       Kinetic =     319.300903
siesta:       Hartree =      59.895611
siesta:    Ext. field =       0.000000
siesta:   Exch.-corr. =    -446.060945
siesta:  Ion-electron =    -421.908237
siesta:       Ion-ion =    -541.900637
siesta:       Ekinion =       0.000000
siesta:         Total =   -1030.673305

siesta: Stress tensor (static) (eV/Ang**3):
siesta:     0.000046    0.000612    0.000612
siesta:     0.000612    0.000046    0.000612
siesta:     0.000612    0.000612    0.000046

siesta: Constrained stress tensor (static) (eV/Ang**3):
siesta:     0.000046    0.000612    0.000612
siesta:     0.000612    0.000046    0.000612
siesta:     0.000612    0.000612    0.000046

siesta: Cell volume =        168.093269 Ang**3

siesta: Pressure (static):
siesta:                Solid            Molecule  Units
siesta:          -0.00000050          0.00000163  Ry/Bohr**3
siesta:          -0.00004584          0.00014979  eV/Ang**3
siesta:          -0.07344545          0.23998613  kBar
(Free)E+ p_basis*V_orbitals  =       -1021.735575
(Free)Eharris+ p_basis*V_orbitals  =       -1021.737220

* Maximum dynamic memory allocated : Node    0 =    90 MB

* Maximum memory occured during init_pulay_arrrays            

timer: CPU execution times:
timer:  Routine       Calls   Time/call    Tot.time        %
timer:  siesta            1    2208.494    2208.494   100.00
timer:  Setup             1       0.185       0.185     0.01
timer:  bands             3       0.499       1.498     0.07
timer:  writewave         3       0.008       0.025     0.00
timer:  KSV_init          1       0.000       0.000     0.00
timer:  IterMD           18     122.594    2206.686    99.92
timer:  hsparse          18       0.208       3.739     0.17
timer:  overlap          18       0.130       2.343     0.11
timer:  IterSCF          91      20.610    1875.487    84.92
timer:  kinefsm          36       0.132       4.748     0.21
timer:  nlefsm           36       3.982     143.340     6.49
timer:  DHSCF           109       9.023     983.540    44.53
timer:  DHSCF1           18       0.053       0.959     0.04
timer:  DHSCF2           18       3.291      59.239     2.68
timer:  REORD           690       0.000       0.102     0.00
timer:  POISON          127       0.005       0.623     0.03
timer:  DHSCF3          109       7.432     810.047    36.68
timer:  rhoofd          109       3.364     366.709    16.60
timer:  cellXC          109       0.173      18.867     0.85
timer:  vmat            109       3.886     423.609    19.18
timer:  MolMec           36       0.000       0.000     0.00
timer:  diagon           91      11.658    1060.920    48.04
timer:  c-eigval      17181       0.016     283.306    12.83
timer:  c-buildHS     17181       0.010     177.552     8.04
timer:  cdiag         34262       0.009     309.961    14.03
timer:  cdiag1        34262       0.001      29.411     1.33
timer:  cdiag2        34262       0.002      84.058     3.81
timer:  cdiag3        34262       0.006     190.622     8.63
timer:  cdiag4        34262       0.000       4.120     0.19
timer:  c-eigvec      17081       0.022     381.715    17.28
timer:  c-buildD      17080       0.023     396.060    17.93
timer:  DHSCF4           18       6.292     113.248     5.13
timer:  dfscf            18       5.525      99.450     4.50
timer:  overfsm          18       0.124       2.224     0.10
timer:  optical           1       0.000       0.000     0.00
  

elaps: ELAPSED times:
elaps:  Routine       Calls   Time/call    Tot.time        %
elaps:  siesta            1    2209.331    2209.331   100.00
elaps:  Setup             1       0.202       0.202     0.01
elaps:  bands             3       0.499       1.498     0.07
elaps:  writewave         3       0.008       0.025     0.00
elaps:  KSV_init          1       0.000       0.000     0.00
elaps:  IterMD           18     122.639    2207.498    99.92
elaps:  hsparse          18       0.208       3.741     0.17
elaps:  overlap          18       0.131       2.351     0.11
elaps:  IterSCF          91      20.616    1876.082    84.92
elaps:  kinefsm          36       0.132       4.754     0.22
elaps:  nlefsm           36       3.983     143.401     6.49
elaps:  DHSCF           109       9.025     983.752    44.53
elaps:  DHSCF1           18       0.053       0.959     0.04
elaps:  DHSCF2           18       3.292      59.247     2.68
elaps:  REORD           690       0.000       0.102     0.00
elaps:  POISON          127       0.005       0.624     0.03
elaps:  DHSCF3          109       7.433     810.239    36.67
elaps:  rhoofd          109       3.365     366.808    16.60
elaps:  cellXC          109       0.173      18.871     0.85
elaps:  vmat            109       3.887     423.702    19.18
elaps:  MolMec           36       0.000       0.000     0.00
elaps:  diagon           91      11.662    1061.274    48.04
elaps:  c-eigval      17181       0.016     283.386    12.83
elaps:  c-buildHS     17181       0.010     177.716     8.04
elaps:  cdiag         34262       0.009     309.945    14.03
elaps:  cdiag1        34262       0.001      29.500     1.34
elaps:  cdiag2        34262       0.002      84.116     3.81
elaps:  cdiag3        34262       0.006     190.724     8.63
elaps:  cdiag4        34262       0.000       4.126     0.19
elaps:  c-eigvec      17081       0.022     381.815    17.28
elaps:  c-buildD      17080       0.023     396.287    17.94
elaps:  DHSCF4           18       6.292     113.259     5.13
elaps:  dfscf            18       5.526      99.460     4.50
elaps:  overfsm          18       0.124       2.224     0.10
elaps:  optical           1       0.000       0.000     0.00
  
>> End of run:  13-MAY-2013  12:16:06
