Siesta Version:                                        siesta-3.2
Architecture  : x86_64-unknown-linux-gnu--unknown
Compiler flags: f95 -g -O2
SERIAL version

* Running in serial mode
>> Start of run:  27-APR-2013  17:05:01

                           ***********************       
                           *  WELCOME TO SIESTA  *       
                           ***********************       

reinit: Reading from standard input
Siesta Version:                                        siesta-3.2
Architecture  : x86_64-unknown-linux-gnu--unknown
Compiler flags: f95 -g -O2
SERIAL version

* Running in serial mode
>> Start of run:  27-APR-2013  17:05:01

                           ***********************       
                           *  WELCOME TO SIESTA  *       
                           ***********************       

reinit: Reading from standard input
************************** Dump of input data file ****************************
# FDF for Adenine +  Thymine   coupled system
#Modify all the lines which contains "?", "xctype".
SystemName            ade_thy        # Descriptive name of the system
SystemLabel            ade_thy_gga.DZP         # Short name for naming files
NumberOfSpecies        4           # Number of species
NumberOfAtoms          30           # Number of atoms
##Xc flavour##
XC.functional          GGA	    # Generalized Gradient Approximation
XC.authors             PBE          # Perdew-Burke-Ernzerhof
##Output specs##
SaveHS                 true
SaveRho                true
LongOutput             true
WriteCoorXmol          true
WriteMDhistory         true         # Trajectory information
WriteCoorStep          true
WriteCoorXmol          true
WriteMDXmol            true
%block  Chemical_Species_label
       1  6   C
       2  1   H
       3  7   N
       4  8   O
%endblock Chemical_Species_label
SpinPolarized     false
MeshCutoff	       150. Ry        # Mesh cutoff. real space mesh (Ry)
DM.MixingWeight       0.1          # New DM amount for next SCF cycle
DM.Tolerance          1.d-4         # Tolerance in maximum difference
                                    # between input and output DM
DM.NumberPulay         4
NeglNonOverlapInt     false         # Neglect non-overlap interactions
SolutionMethod        diagon        # OrderN or Diagon
ElectronicTemperature 300 K         # Temp. for Fermi smearing (Ry)
##Minimization_strategy
MD.TypeOfRun           CG           # Type of dynamics:
MD.NumCGsteps          100           # Number of CG steps for
                                    #   coordinate optimization
MD.MaxCGDispl          0.2 Bohr     # Maximum atomic displacement
                                    #   in one CG step (Bohr)
MD.MaxForceTol         0.04 eV/Ang  # Tolerance in the maximum
                                    #   atomic force (Ry/Bohr)
#Basis_defenition
PAO.BasisType    split
PAO.BasisSize    DZP
PAO.EnergyShift         50.0 meV
PAO.SplitNorm           0.20
PAO.SplitNormH          0.35
AtomicCoordinatesFormat    NotScaledCartesianAng    # Format for coordinates
%block AtomicCoordinatesAndAtomicSpecies
   -5.71577300    3.86159700    2.98066100   3       1  N
   -7.82491800    4.65816100    3.20738700   3       2  N
  -10.08940800    2.75224100    4.11445600   3       3  N
   -8.41114600    1.11363800    4.21799200   3       4  N
   -6.08800800    1.51434000    3.64223200   3       5  N
   -6.57938300    4.95247400    2.88418300   1       6  C
   -7.78342500    3.30380500    3.53372300   1       7  C
   -8.78933000    2.39528500    3.96027000   1       8  C
   -7.11385100    0.75085300    4.05436900   1       9  C
   -6.48188600    2.78135100    3.40090900   1      10  C
   -4.72669700    3.84190500    2.77729100   2      11  H
   -6.22481400    5.92598000    2.57648000   2      12  H
  -10.77699500    2.08872200    4.47897600   2      13  H
  -10.35085700    3.71191900    3.94492000   2      14  H
   -6.89534700   -0.28660500    4.29948200   2      15  H
   -8.41189000   -2.24992300    5.55618400   4      16  O
  -11.94568700    0.70198200    5.24514900   4      17  O
  -10.49736200   -2.91266200    6.30384000   3      18  N
  -10.19969100   -0.78837900    5.38538500   3      19  N
   -9.59818700   -1.99432900    5.72904100   1      20  C
  -11.54330400   -0.42832600    5.56844500   1      21  C
  -12.41257200   -1.46069700    6.15684900   1      22  C
  -13.88017400   -1.14128600    6.33954300   1      23  C
  -11.84435500   -2.65173900    6.50391500   1      24  C
   -9.56387400   -0.07912000    4.94821600   2      25  H
  -10.09175500   -3.79860500    6.57158300   2      26  H
  -12.41176100   -3.45776300    6.95794300   2      27  H
  -14.41443600   -1.98537400    6.78781100   2      28  H
  -14.00919700   -0.25744600    6.97583700   2      29  H
  -14.34340900   -0.90187100    5.37414300   2      30  H
%endblock AtomicCoordinatesAndAtomicSpecies
## Simulation restart parameters ##
#DM.UseSaveDM   true
#MD.UseSaveXV   true
#MD.UseSaveCG   true
************************** End of input data file *****************************
************************** Dump of input data file ****************************
************************** End of input data file *****************************

reinit: -----------------------------------------------------------------------
reinit: System Name: 
reinit: -----------------------------------------------------------------------
reinit: System Label: siesta                                                      
reinit: -----------------------------------------------------------------------

initatom: Reading input for the pseudopotentials and atomic orbitals ----------
No species found!!!
ERROR STOP from Node:    0

reinit: -----------------------------------------------------------------------
reinit: System Name: ade_thy
reinit: -----------------------------------------------------------------------
reinit: System Label: ade_thy_gga.DZP                                             
reinit: -----------------------------------------------------------------------

initatom: Reading input for the pseudopotentials and atomic orbitals ----------
 Species number:            1  Label: C Atomic number:           6
 Species number:            2  Label: H Atomic number:           1
 Species number:            3  Label: N Atomic number:           7
 Species number:            4  Label: O Atomic number:           8
Ground state valence configuration:   2s02  2p02
Reading pseudopotential information in formatted form from C.psf

Valence configuration for pseudopotential generation:
2s( 2.00) rc: 1.54
2p( 2.00) rc: 1.54
3d( 0.00) rc: 1.54
4f( 0.00) rc: 1.54
Ground state valence configuration:   1s01
Reading pseudopotential information in formatted form from H.psf

Valence configuration for pseudopotential generation:
1s( 1.00) rc: 1.31
2p( 0.00) rc: 1.31
3d( 0.00) rc: 0.37
4f( 0.00) rc: 1.31
Ground state valence configuration:   2s02  2p03
Reading pseudopotential information in formatted form from N.psf

Valence configuration for pseudopotential generation:
2s( 2.00) rc: 1.48
2p( 3.00) rc: 1.48
3d( 0.00) rc: 1.48
4f( 0.00) rc: 1.48
Ground state valence configuration:   2s02  2p04
Reading pseudopotential information in formatted form from O.psf

Valence configuration for pseudopotential generation:
2s( 2.00) rc: 1.47
2p( 4.00) rc: 1.47
3d( 0.00) rc: 1.47
4f( 0.00) rc: 1.47
For C, standard SIESTA heuristics set lmxkb to 3
 (one more than the basis l, including polarization orbitals).
Use PS.lmax or PS.KBprojectors blocks to override.
For H, standard SIESTA heuristics set lmxkb to 2
 (one more than the basis l, including polarization orbitals).
Use PS.lmax or PS.KBprojectors blocks to override.
For N, standard SIESTA heuristics set lmxkb to 3
 (one more than the basis l, including polarization orbitals).
Use PS.lmax or PS.KBprojectors blocks to override.
For O, standard SIESTA heuristics set lmxkb to 3
 (one more than the basis l, including polarization orbitals).
Use PS.lmax or PS.KBprojectors blocks to override.

<basis_specs>
===============================================================================
C                    Z=   6    Mass=  12.010        Charge= 0.17977+309
Lmxo=1 Lmxkb= 3    BasisType=split      Semic=F
L=0  Nsemic=0  Cnfigmx=2
          n=1  nzeta=2  polorb=0
            splnorm:   0.20000    
               vcte:    0.0000    
               rinn:    0.0000    
                rcs:    0.0000      0.0000    
            lambdas:    1.0000      1.0000    
L=1  Nsemic=0  Cnfigmx=2
          n=1  nzeta=2  polorb=1
            splnorm:   0.20000    
               vcte:    0.0000    
               rinn:    0.0000    
                rcs:    0.0000      0.0000    
            lambdas:    1.0000      1.0000    
-------------------------------------------------------------------------------
L=0  Nkbl=1  erefs: 0.17977+309
L=1  Nkbl=1  erefs: 0.17977+309
L=2  Nkbl=1  erefs: 0.17977+309
L=3  Nkbl=1  erefs: 0.17977+309
===============================================================================
</basis_specs>

atom: Called for C                     (Z =   6)

read_vps: Pseudopotential generation method:
read_vps: ATM3      Troullier-Martins                       
Total valence charge:    4.00000

read_vps: Pseudopotential includes a core correction:
read_vps: Pseudo-core for xc-correction

xc_check: Exchange-correlation functional:
xc_check: GGA Perdew, Burke & Ernzerhof 1996
V l=0 = -2*Zval/r beyond r=  1.5227
V l=1 = -2*Zval/r beyond r=  1.5227
V l=2 = -2*Zval/r beyond r=  1.5227
V l=3 = -2*Zval/r beyond r=  1.5038
All V_l potentials equal beyond r=  1.5227
This should be close to max(r_c) in ps generation
All pots = -2*Zval/r beyond r=  1.5227

VLOCAL1: 99.0% of the norm of Vloc inside     18.722 Ry
VLOCAL1: 99.9% of the norm of Vloc inside     42.668 Ry
atom: Maximum radius for 4*pi*r*r*local-pseudopot. charge    1.83678
atom: Maximum radius for r*vlocal+2*Zval:    1.58088
GHOST: No ghost state for L =  0
GHOST: No ghost state for L =  1
GHOST: No ghost state for L =  2
GHOST: No ghost state for L =  3

KBgen: Kleinman-Bylander projectors: 
   l= 0   rc=  1.704034   el= -1.009801   Ekb=  5.335044   kbcos=  0.316824
   l= 1   rc=  1.704034   el= -0.388707   Ekb= -3.785862   kbcos= -0.366464
   l= 2   rc=  1.791422   el=  0.001971   Ekb= -0.970471   kbcos= -0.009212
   l= 3   rc=  1.859892   el=  0.003065   Ekb= -0.399525   kbcos= -0.001223

KBgen: Total number of  Kleinman-Bylander projectors:   16
atom: -------------------------------------------------------------------------

atom: SANKEY-TYPE ORBITALS:
atom: Selected multiple-zeta basis: split     

SPLIT: Orbitals with angular momentum L= 0

SPLIT: Basis orbitals for state 2s

SPLIT: PAO cut-off radius determined from an
SPLIT: energy shift=  0.003675 Ry

   izeta = 1
                 lambda =    1.000000
                     rc =    4.993604
                 energy =   -1.005980
                kinetic =    0.839218
    potential(screened) =   -1.845197
       potential(ionic) =   -5.392735

   izeta = 2
                 rmatch =    3.264524
              splitnorm =    0.200000
                 energy =   -0.826355
                kinetic =    1.381401
    potential(screened) =   -2.207756
       potential(ionic) =   -6.030234

SPLIT: Orbitals with angular momentum L= 1

SPLIT: Basis orbitals for state 2p

SPLIT: PAO cut-off radius determined from an
SPLIT: energy shift=  0.003675 Ry

   izeta = 1
                 lambda =    1.000000
                     rc =    6.253707
                 energy =   -0.385053
                kinetic =    2.351236
    potential(screened) =   -2.736289
       potential(ionic) =   -6.136106

   izeta = 2
                 rmatch =    3.431921
              splitnorm =    0.200000
                 energy =   -0.196002
                kinetic =    3.817275
    potential(screened) =   -4.013277
       potential(ionic) =   -7.859125

POLgen: Perturbative polarization orbital with L=  2

POLgen: Polarization orbital for state 2p

   izeta = 1
                     rc =    6.253707
                 energy =    1.023651
                kinetic =    2.146437
    potential(screened) =   -1.122786
       potential(ionic) =   -3.868043
atom: Total number of Sankey-type orbitals: 13

atm_pop: Valence configuration (for local Pseudopot. screening):
 2s( 2.00)                                                            
 2p( 2.00)                                                            
Vna: chval, zval:    4.00000   4.00000

Vna:  Cut-off radius for the neutral-atom potential:   6.253707
comcore: Pseudo-core radius Rcore=  1.791422

atom: _________________________________________________________________________

<basis_specs>
===============================================================================
H                    Z=   1    Mass=  1.0100        Charge= 0.17977+309
Lmxo=0 Lmxkb= 2    BasisType=split      Semic=F
L=0  Nsemic=0  Cnfigmx=1
          n=1  nzeta=2  polorb=1
            splnorm:   0.35000    
               vcte:    0.0000    
               rinn:    0.0000    
                rcs:    0.0000      0.0000    
            lambdas:    1.0000      1.0000    
-------------------------------------------------------------------------------
L=0  Nkbl=1  erefs: 0.17977+309
L=1  Nkbl=1  erefs: 0.17977+309
L=2  Nkbl=1  erefs: 0.17977+309
===============================================================================
</basis_specs>

atom: Called for H                     (Z =   1)

read_vps: Pseudopotential generation method:
read_vps: ATM3      Troullier-Martins                       
Total valence charge:    1.00000

xc_check: Exchange-correlation functional:
xc_check: GGA Perdew, Burke & Ernzerhof 1996
V l=0 = -2*Zval/r beyond r=  1.2977
V l=1 = -2*Zval/r beyond r=  1.2815
V l=2 = -2*Zval/r beyond r=  1.2656
All V_l potentials equal beyond r=  1.2977
This should be close to max(r_c) in ps generation
All pots = -2*Zval/r beyond r=  1.2977

VLOCAL1: 99.0% of the norm of Vloc inside     25.776 Ry
VLOCAL1: 99.9% of the norm of Vloc inside     58.745 Ry
atom: Maximum radius for 4*pi*r*r*local-pseudopot. charge    1.52711
atom: Maximum radius for r*vlocal+2*Zval:    1.28155
GHOST: No ghost state for L =  0
GHOST: No ghost state for L =  1
GHOST: No ghost state for L =  2

KBgen: Kleinman-Bylander projectors: 
   l= 0   rc=  1.434438   el= -0.477200   Ekb= -1.957043   kbcos= -0.361614
   l= 1   rc=  1.508111   el=  0.001076   Ekb= -0.424224   kbcos= -0.025441
   l= 2   rc=  1.527112   el=  0.002010   Ekb= -0.378578   kbcos= -0.002010

KBgen: Total number of  Kleinman-Bylander projectors:    9
atom: -------------------------------------------------------------------------

atom: SANKEY-TYPE ORBITALS:
atom: Selected multiple-zeta basis: split     

SPLIT: Orbitals with angular momentum L= 0

SPLIT: Basis orbitals for state 1s

SPLIT: PAO cut-off radius determined from an
SPLIT: energy shift=  0.003675 Ry

   izeta = 1
                 lambda =    1.000000
                     rc =    6.047169
                 energy =   -0.473724
                kinetic =    0.890782
    potential(screened) =   -1.364506
       potential(ionic) =   -1.884960

   izeta = 2
                 rmatch =    3.001687
              splitnorm =    0.350000
                 energy =   -0.173367
                kinetic =    2.040149
    potential(screened) =   -2.213517
       potential(ionic) =   -2.769373

POLgen: Perturbative polarization orbital with L=  1

POLgen: Polarization orbital for state 1s

   izeta = 1
                     rc =    6.047169
                 energy =    0.568239
                kinetic =    1.185287
    potential(screened) =   -0.617047
       potential(ionic) =   -1.087200
atom: Total number of Sankey-type orbitals:  5

atm_pop: Valence configuration (for local Pseudopot. screening):
 1s( 1.00)                                                            
Vna: chval, zval:    1.00000   1.00000

Vna:  Cut-off radius for the neutral-atom potential:   6.047169

atom: _________________________________________________________________________

<basis_specs>
===============================================================================
N                    Z=   7    Mass=  14.010        Charge= 0.17977+309
Lmxo=1 Lmxkb= 3    BasisType=split      Semic=F
L=0  Nsemic=0  Cnfigmx=2
          n=1  nzeta=2  polorb=0
            splnorm:   0.20000    
               vcte:    0.0000    
               rinn:    0.0000    
                rcs:    0.0000      0.0000    
            lambdas:    1.0000      1.0000    
L=1  Nsemic=0  Cnfigmx=2
          n=1  nzeta=2  polorb=1
            splnorm:   0.20000    
               vcte:    0.0000    
               rinn:    0.0000    
                rcs:    0.0000      0.0000    
            lambdas:    1.0000      1.0000    
-------------------------------------------------------------------------------
L=0  Nkbl=1  erefs: 0.17977+309
L=1  Nkbl=1  erefs: 0.17977+309
L=2  Nkbl=1  erefs: 0.17977+309
L=3  Nkbl=1  erefs: 0.17977+309
===============================================================================
</basis_specs>

atom: Called for N                     (Z =   7)

read_vps: Pseudopotential generation method:
read_vps: ATM3      Troullier-Martins                       
Total valence charge:    5.00000

read_vps: Pseudopotential includes a core correction:
read_vps: Pseudo-core for xc-correction

xc_check: Exchange-correlation functional:
xc_check: GGA Perdew, Burke & Ernzerhof 1996
V l=0 = -2*Zval/r beyond r=  1.4606
V l=1 = -2*Zval/r beyond r=  1.4606
V l=2 = -2*Zval/r beyond r=  1.4606
V l=3 = -2*Zval/r beyond r=  1.4606
All V_l potentials equal beyond r=  1.4606
This should be close to max(r_c) in ps generation
All pots = -2*Zval/r beyond r=  1.4606

VLOCAL1: 99.0% of the norm of Vloc inside     20.347 Ry
VLOCAL1: 99.9% of the norm of Vloc inside     46.372 Ry
atom: Maximum radius for 4*pi*r*r*local-pseudopot. charge    1.76189
atom: Maximum radius for r*vlocal+2*Zval:    1.53550
GHOST: No ghost state for L =  0
GHOST: No ghost state for L =  1
GHOST: No ghost state for L =  2
GHOST: No ghost state for L =  3

KBgen: Kleinman-Bylander projectors: 
   l= 0   rc=  1.634559   el= -1.363963   Ekb=  5.296955   kbcos=  0.335621
   l= 1   rc=  1.614250   el= -0.521451   Ekb= -5.259161   kbcos= -0.433408
   l= 2   rc=  1.718383   el=  0.001991   Ekb= -1.271464   kbcos= -0.007566
   l= 3   rc=  1.761893   el=  0.003093   Ekb= -0.494769   kbcos= -0.001015

KBgen: Total number of  Kleinman-Bylander projectors:   16
atom: -------------------------------------------------------------------------

atom: SANKEY-TYPE ORBITALS:
atom: Selected multiple-zeta basis: split     

SPLIT: Orbitals with angular momentum L= 0

SPLIT: Basis orbitals for state 2s

SPLIT: PAO cut-off radius determined from an
SPLIT: energy shift=  0.003675 Ry

   izeta = 1
                 lambda =    1.000000
                     rc =    4.388595
                 energy =   -1.360245
                kinetic =    1.158929
    potential(screened) =   -2.519174
       potential(ionic) =   -8.027872

   izeta = 2
                 rmatch =    2.729068
              splitnorm =    0.200000
                 energy =   -1.084138
                kinetic =    1.952729
    potential(screened) =   -3.036867
       potential(ionic) =   -9.025781

SPLIT: Orbitals with angular momentum L= 1

SPLIT: Basis orbitals for state 2p

SPLIT: PAO cut-off radius determined from an
SPLIT: energy shift=  0.003675 Ry

   izeta = 1
                 lambda =    1.000000
                     rc =    5.496027
                 energy =   -0.517878
                kinetic =    3.386838
    potential(screened) =   -3.904716
       potential(ionic) =   -9.203549

   izeta = 2
                 rmatch =    2.833365
              splitnorm =    0.200000
                 energy =   -0.268776
                kinetic =    5.377174
    potential(screened) =   -5.645951
       potential(ionic) =  -11.642273

POLgen: Perturbative polarization orbital with L=  2

POLgen: Polarization orbital for state 2p

   izeta = 1
                     rc =    5.496027
                 energy =    1.497880
                kinetic =    3.066405
    potential(screened) =   -1.568525
       potential(ionic) =   -5.774358
atom: Total number of Sankey-type orbitals: 13

atm_pop: Valence configuration (for local Pseudopot. screening):
 2s( 2.00)                                                            
 2p( 3.00)                                                            
Vna: chval, zval:    5.00000   5.00000

Vna:  Cut-off radius for the neutral-atom potential:   5.496027
comcore: Pseudo-core radius Rcore=  1.554824

atom: _________________________________________________________________________

<basis_specs>
===============================================================================
O                    Z=   8    Mass=  16.000        Charge= 0.17977+309
Lmxo=1 Lmxkb= 3    BasisType=split      Semic=F
L=0  Nsemic=0  Cnfigmx=2
          n=1  nzeta=2  polorb=0
            splnorm:   0.20000    
               vcte:    0.0000    
               rinn:    0.0000    
                rcs:    0.0000      0.0000    
            lambdas:    1.0000      1.0000    
L=1  Nsemic=0  Cnfigmx=2
          n=1  nzeta=2  polorb=1
            splnorm:   0.20000    
               vcte:    0.0000    
               rinn:    0.0000    
                rcs:    0.0000      0.0000    
            lambdas:    1.0000      1.0000    
-------------------------------------------------------------------------------
L=0  Nkbl=1  erefs: 0.17977+309
L=1  Nkbl=1  erefs: 0.17977+309
L=2  Nkbl=1  erefs: 0.17977+309
L=3  Nkbl=1  erefs: 0.17977+309
===============================================================================
</basis_specs>

atom: Called for O                     (Z =   8)

read_vps: Pseudopotential generation method:
read_vps: ATM3      Troullier-Martins                       
Total valence charge:    6.00000

read_vps: Pseudopotential includes a core correction:
read_vps: Pseudo-core for xc-correction

xc_check: Exchange-correlation functional:
xc_check: GGA Perdew, Burke & Ernzerhof 1996
V l=0 = -2*Zval/r beyond r=  1.4482
V l=1 = -2*Zval/r beyond r=  1.4482
V l=2 = -2*Zval/r beyond r=  1.4482
V l=3 = -2*Zval/r beyond r=  1.4482
All V_l potentials equal beyond r=  1.4482
This should be close to max(r_c) in ps generation
All pots = -2*Zval/r beyond r=  1.4482

VLOCAL1: 99.0% of the norm of Vloc inside     20.696 Ry
VLOCAL1: 99.9% of the norm of Vloc inside     47.167 Ry
atom: Maximum radius for 4*pi*r*r*local-pseudopot. charge    1.74697
atom: Maximum radius for r*vlocal+2*Zval:    1.52250
GHOST: No ghost state for L =  0
GHOST: No ghost state for L =  1
GHOST: No ghost state for L =  2
GHOST: No ghost state for L =  3

KBgen: Kleinman-Bylander projectors: 
   l= 0   rc=  1.620715   el= -1.757696   Ekb=  4.880948   kbcos=  0.293490
   l= 1   rc=  1.600578   el= -0.664256   Ekb= -6.909822   kbcos= -0.499892
   l= 2   rc=  1.703827   el=  0.002031   Ekb= -1.539219   kbcos= -0.006778
   l= 3   rc=  1.746967   el=  0.003153   Ekb= -0.568983   kbcos= -0.000967

KBgen: Total number of  Kleinman-Bylander projectors:   16
atom: -------------------------------------------------------------------------

atom: SANKEY-TYPE ORBITALS:
atom: Selected multiple-zeta basis: split     

SPLIT: Orbitals with angular momentum L= 0

SPLIT: Basis orbitals for state 2s

SPLIT: PAO cut-off radius determined from an
SPLIT: energy shift=  0.003675 Ry

   izeta = 1
                 lambda =    1.000000
                     rc =    3.937239
                 energy =   -1.754089
                kinetic =    1.537986
    potential(screened) =   -3.292075
       potential(ionic) =  -11.176201

   izeta = 2
                 rmatch =    2.387934
              splitnorm =    0.200000
                 energy =   -1.408814
                kinetic =    2.561179
    potential(screened) =   -3.969993
       potential(ionic) =  -12.567546

SPLIT: Orbitals with angular momentum L= 1

SPLIT: Basis orbitals for state 2p

SPLIT: PAO cut-off radius determined from an
SPLIT: energy shift=  0.003675 Ry

   izeta = 1
                 lambda =    1.000000
                     rc =    4.930772
                 energy =   -0.660719
                kinetic =    4.501038
    potential(screened) =   -5.161757
       potential(ionic) =  -12.742490

   izeta = 2
                 rmatch =    2.448393
              splitnorm =    0.200000
                 energy =   -0.298727
                kinetic =    7.232406
    potential(screened) =   -7.531134
       potential(ionic) =  -16.150159

POLgen: Perturbative polarization orbital with L=  2

POLgen: Polarization orbital for state 2p

   izeta = 1
                     rc =    4.930772
                 energy =    2.052116
                kinetic =    4.151048
    potential(screened) =   -2.098932
       potential(ionic) =   -8.067236
atom: Total number of Sankey-type orbitals: 13

atm_pop: Valence configuration (for local Pseudopot. screening):
 2s( 2.00)                                                            
 2p( 4.00)                                                            
Vna: chval, zval:    6.00000   6.00000

Vna:  Cut-off radius for the neutral-atom potential:   4.930772
comcore: Pseudo-core radius Rcore=  1.377587

atom: _________________________________________________________________________

prinput: Basis input ----------------------------------------------------------

PAO.BasisType split     

%block ChemicalSpeciesLabel
    1    6 C                       # Species index, atomic number, species label
    2    1 H                       # Species index, atomic number, species label
    3    7 N                       # Species index, atomic number, species label
    4    8 O                       # Species index, atomic number, species label
%endblock ChemicalSpeciesLabel

%block PAO.Basis                 # Define Basis set
C                     2                    # Species label, number of l-shells
 n=2   0   2                         # n, l, Nzeta 
   4.994      3.265   
   1.000      1.000   
 n=2   1   2 P   1                   # n, l, Nzeta, Polarization, NzetaPol
   6.254      3.432   
   1.000      1.000   
H                     1                    # Species label, number of l-shells
 n=1   0   2 P   1                   # n, l, Nzeta, Polarization, NzetaPol
   6.047      3.002   
   1.000      1.000   
N                     2                    # Species label, number of l-shells
 n=2   0   2                         # n, l, Nzeta 
   4.389      2.729   
   1.000      1.000   
 n=2   1   2 P   1                   # n, l, Nzeta, Polarization, NzetaPol
   5.496      2.833   
   1.000      1.000   
O                     2                    # Species label, number of l-shells
 n=2   0   2                         # n, l, Nzeta 
   3.937      2.388   
   1.000      1.000   
 n=2   1   2 P   1                   # n, l, Nzeta, Polarization, NzetaPol
   4.931      2.448   
   1.000      1.000   
%endblock PAO.Basis

prinput: ----------------------------------------------------------------------

coor:   Atomic-coordinates input format  =     Cartesian coordinates
coor:                                          (in Angstroms)

siesta: Atomic coordinates (Bohr) and species
siesta:    -10.80125   7.29736   5.63264  3        1
siesta:    -14.78696   8.80265   6.06109  3        2
siesta:    -19.06623   5.20098   7.77520  3        3
siesta:    -15.89477   2.10447   7.97085  3        4
siesta:    -11.50467   2.86169   6.88282  3        5
siesta:    -12.43324   9.35882   5.45032  1        6
siesta:    -14.70855   6.24329   6.67777  1        7
siesta:    -16.60943   4.52643   7.48383  1        8
siesta:    -13.44324   1.41891   7.66165  1        9
siesta:    -12.24899   5.25599   6.42679  1       10
siesta:     -8.93217   7.26015   5.24832  2       11
siesta:    -11.76320  11.19848   4.86884  2       12
siesta:    -20.36558   3.94711   8.46404  2       13
siesta:    -19.56029   7.01451   7.45482  2       14
siesta:    -13.03032  -0.54161   8.12485  2       15
siesta:    -15.89617  -4.25174  10.49967  4       16
siesta:    -22.57409   1.32655   9.91190  4       17
siesta:    -19.83715  -5.50414  11.91254  3       18
siesta:    -19.27463  -1.48982  10.17691  3       19
siesta:    -18.13795  -3.76874  10.82632  1       20
siesta:    -21.81369  -0.80942  10.52284  1       21
siesta:    -23.45637  -2.76032  11.63476  1       22
siesta:    -26.22974  -2.15672  11.98000  1       23
siesta:    -22.38260  -5.01106  12.29062  1       24
siesta:    -18.07311  -0.14952   9.35078  2       25
siesta:    -19.07066  -7.17833  12.41850  2       26
siesta:    -23.45484  -6.53423  13.14861  2       27
siesta:    -27.23935  -3.75181  12.82711  2       28
siesta:    -26.47356  -0.48650  13.18243  2       29
siesta:    -27.10513  -1.70429  10.15566  2       30

siesta: Automatic unit cell vectors (Ang):
siesta:   17.696563    0.000000    0.000000
siesta:    0.000000   17.737093    0.000000
siesta:    0.000000    0.000000   11.879342

siesta: System type = molecule  

initatomlists: Number of atoms, orbitals, and projectors:     30   302   403

siesta: ******************** Simulation parameters ****************************
siesta:
siesta: The following are some of the parameters of the simulation.
siesta: A complete list of the parameters used, including default values,
siesta: can be found in file out.fdf
siesta:
redata: Non-Collinear-spin run           =     F
redata: SpinPolarized (Up/Down) run      =     F
redata: Number of spin components        =     1
redata: Long output                      =     T
redata: Number of Atomic Species         =        4
redata: Charge density info will appear in .RHO file
redata: Write Mulliken Pop.              =     Atomic and Orbital charges
redata: Mesh Cutoff                      =   150.0000  Ry
redata: Net charge of the system         =     0.0000 |e|
redata: Max. number of SCF Iter          =       50
redata: Performing Pulay mixing using    =     4 iterations
redata: Mix DM in first SCF step ?       =     F
redata: Write Pulay info on disk?        =     F
redata: Discard 1st Pulay DM after  kick =     F
redata: New DM Mixing Weight             =     0.1000
redata: New DM Occupancy tolerance       = 0.000000000001
redata: No kicks to SCF
redata: DM Mixing Weight for Kicks       =     0.5000
redata: DM Tolerance for SCF             =     0.000100
redata: Require Energy convergence for SCF =     F
redata: DM Energy tolerance for SCF      =     0.000100 eV
redata: Require Harris convergence for SCF =     F
redata: DM Harris energy tolerance for SCF =     0.000100 eV
redata: Using Saved Data (generic)   =     F
redata: Use continuation files for DM    =     F
redata: Neglect nonoverlap interactions  =     F
redata: Method of Calculation            =     Diagonalization
redata: Divide and Conquer               =     T
redata: Electronic Temperature           =     0.0019  Ry
redata: Fix the spin of the system       =     F
redata: Dynamics option                  =     CG coord. optimization
redata: Variable cell                    =     F
redata: Use continuation files for CG    =     F
redata: Max atomic displ per move        =     0.2000  Bohr
redata: Maximum number of CG moves       =      100
redata: Force tolerance                  =     0.0016  Ry/Bohr
redata: ***********************************************************************
Total number of electrons:    98.000000
Total ionic charge:    98.000000
 Kpoints in:            1 . Kpoints trimmed:            1

siesta: k-point coordinates (Bohr**-1) and weights:
siesta:    1    0.000000    0.000000    0.000000       1.000000

siesta: k-grid: Number of k-points =     1
siesta: k-grid: Cutoff (effective) =     5.940 Ang
siesta: k-grid: Supercell and displacements
siesta: k-grid:    1   0   0      0.000
siesta: k-grid:    0   1   0      0.000
siesta: k-grid:    0   0   1      0.000

* Maximum dynamic memory allocated =     4 MB

siesta:                 ==============================
                            Begin CG move =      0
                        ==============================

outcoor: Atomic coordinates (Ang):                          
   -5.71577300    3.86159700    2.98066100   3       1  N
   -7.82491800    4.65816100    3.20738700   3       2  N
  -10.08940800    2.75224100    4.11445600   3       3  N
   -8.41114600    1.11363800    4.21799200   3       4  N
   -6.08800800    1.51434000    3.64223200   3       5  N
   -6.57938300    4.95247400    2.88418300   1       6  C
   -7.78342500    3.30380500    3.53372300   1       7  C
   -8.78933000    2.39528500    3.96027000   1       8  C
   -7.11385100    0.75085300    4.05436900   1       9  C
   -6.48188600    2.78135100    3.40090900   1      10  C
   -4.72669700    3.84190500    2.77729100   2      11  H
   -6.22481400    5.92598000    2.57648000   2      12  H
  -10.77699500    2.08872200    4.47897600   2      13  H
  -10.35085700    3.71191900    3.94492000   2      14  H
   -6.89534700   -0.28660500    4.29948200   2      15  H
   -8.41189000   -2.24992300    5.55618400   4      16  O
  -11.94568700    0.70198200    5.24514900   4      17  O
  -10.49736200   -2.91266200    6.30384000   3      18  N
  -10.19969100   -0.78837900    5.38538500   3      19  N
   -9.59818700   -1.99432900    5.72904100   1      20  C
  -11.54330400   -0.42832600    5.56844500   1      21  C
  -12.41257200   -1.46069700    6.15684900   1      22  C
  -13.88017400   -1.14128600    6.33954300   1      23  C
  -11.84435500   -2.65173900    6.50391500   1      24  C
   -9.56387400   -0.07912000    4.94821600   2      25  H
  -10.09175500   -3.79860500    6.57158300   2      26  H
  -12.41176100   -3.45776300    6.95794300   2      27  H
  -14.41443600   -1.98537400    6.78781100   2      28  H
  -14.00919700   -0.25744600    6.97583700   2      29  H
  -14.34340900   -0.90187100    5.37414300   2      30  H

outcell: Unit cell vectors (Ang):
       17.696563    0.000000    0.000000
        0.000000   17.737093    0.000000
        0.000000    0.000000   11.879342

outcell: Cell vector modules (Ang)   :   17.696563   17.737093   11.879342
outcell: Cell angles (23,13,12) (deg):     90.0000     90.0000     90.0000
outcell: Cell volume (Ang**3)        :   3728.7543
New_DM. Step:     1
Initializing Density Matrix...

InitMesh: MESH =   144 x   144 x    90 =     1866240
InitMesh: Mesh cutoff (required, used) =   150.000   158.636 Ry

* Maximum dynamic memory allocated =   156 MB

stepf: Fermi-Dirac step function

siesta: Program's energy decomposition (eV):
siesta: Ebs     =     -1631.479131
siesta: Eions   =      6885.881546
siesta: Ena     =      1212.245192
siesta: Ekin    =      2763.614344
siesta: Enl     =      -349.512665
siesta: DEna    =         0.000003
siesta: DUscf   =         0.000000
siesta: DUext   =         0.000000
siesta: Exc     =     -1399.443519
siesta: eta*DQ  =         0.000000
siesta: Emadel  =         0.000000
siesta: Emeta   =         0.000000
siesta: Emolmec =         0.000000
siesta: Ekinion =         0.000000
siesta: Eharris =     -4665.991876
siesta: Etot    =     -4658.978191
siesta: FreeEng =     -4658.978191

siesta: iscf   Eharris(eV)      E_KS(eV)   FreeEng(eV)   dDmax  Ef(eV)
siesta:    1    -4665.9919    -4658.9782    -4658.9782  1.9878 -6.0413
timer: Routine,Calls,Time,% = IterSCF        1      12.677  86.09
elaps: Routine,Calls,Wall,% = IterSCF        1      12.718  86.08
siesta:    2    -4673.7639    -4645.0474    -4645.0474  0.6481 -1.6312
siesta:    3    -4658.9318    -4652.1348    -4652.1348  0.3879 -2.7622
siesta:    4    -4656.9446    -4651.4734    -4651.4734  0.2635 -2.6006
siesta:    5    -4655.9786    -4652.8095    -4652.8095  0.1249 -3.1278
siesta:    6    -4655.7918    -4653.3503    -4653.3503  0.0539 -3.1875
siesta:    7    -4655.7251    -4653.9306    -4653.9306  0.0266 -3.2288
siesta:    8    -4655.7005    -4654.7577    -4654.7577  0.0103 -3.2208
siesta:    9    -4655.6999    -4654.9255    -4654.9255  0.0096 -3.2227
siesta:   10    -4655.6986    -4655.4024    -4655.4024  0.0053 -3.2173
siesta:   11    -4655.6986    -4655.5023    -4655.5023  0.0036 -3.2140
siesta:   12    -4655.6984    -4655.6615    -4655.6615  0.0008 -3.2096
siesta:   13    -4655.6983    -4655.6689    -4655.6689  0.0007 -3.2110
siesta:   14    -4655.6983    -4655.6905    -4655.6905  0.0003 -3.2143
siesta:   15    -4655.6983    -4655.6992    -4655.6992  0.0002 -3.2147
siesta:   16    -4655.6983    -4655.7052    -4655.7052  0.0002 -3.2148
siesta:   17    -4655.6983    -4655.7045    -4655.7045  0.0002 -3.2149
siesta:   18    -4655.6983    -4655.6992    -4655.6992  0.0001 -3.2152

siesta: E_KS(eV) =            -4655.6987

siesta: E_KS - E_eggbox =     -4655.6987

siesta: Atomic forces (eV/Ang):
     1   -0.605350    0.075956    0.095598
     2   -0.200022   -0.187590    0.156115
     3    0.423123   -0.023752   -0.085318
     4   -0.207225   -0.059449    0.091027
     5    0.234453    0.054883   -0.051358
     6    0.049626   -0.883594    0.202172
     7    0.075937    0.354547   -0.145603
     8   -0.148600   -0.004717    0.033585
     9   -0.153639    0.726713   -0.171627
    10    0.031819    0.065805   -0.036479
    11    0.399665   -0.021979   -0.072474
    12    0.200790    0.560199   -0.182143
    13   -0.302942   -0.363574    0.188743
    14   -0.039378    0.302369   -0.053539
    15    0.099843   -0.553668    0.119954
    16    0.503099   -0.002766   -0.378573
    17    0.086665    0.491028    0.326306
    18   -0.317437    0.550036   -0.147411
    19   -0.460988   -0.428537    0.241072
    20   -0.705208    0.116384    0.099957
    21    0.297762   -0.448131    0.116321
    22   -0.348986    0.334053   -0.073508
    23    0.688233   -0.179538   -0.069018
    24    0.650032    0.166042   -0.198835
    25    0.384326    0.383543   -0.238362
    26    0.168075   -0.336088    0.096782
    27   -0.303774   -0.421295    0.216555
    28   -0.194375   -0.292492    0.164614
    29   -0.036412    0.317193    0.227118
    30   -0.157470    0.090673   -0.336548
----------------------------------------
   Tot    0.111640    0.382254    0.135121
----------------------------------------
   Max    0.883594
   Res    0.308635    sqrt( Sum f_i^2 / 3N )
----------------------------------------
   Max    0.883594    constrained

Stress-tensor-Voigt (kbar):       -0.19       -0.88       -0.34        0.06        0.25       -0.02
(Free)E + p*V (eV/cell)    -4654.6052
Target enthalpy (eV/cell)    -4655.6987

mulliken: Mulliken Atomic and Orbital Populations:

Species: C                   
Atom  Qatom  Qorb
               2s      2s      2py     2pz     2px     2py     2pz     2px     
               2Pdxy   2Pdyz   2Pdz2   2Pdxz   2Pdx2-y2
   6  3.959   0.538   0.447   0.432   0.640   0.498   0.463   0.279   0.397
              0.086   0.030   0.015   0.057   0.075
   7  3.980   0.570   0.429   0.446   0.665   0.491   0.420   0.304   0.423
              0.077   0.050   0.017   0.032   0.055
   8  3.991   0.672   0.384   0.494   0.529   0.378   0.407   0.318   0.447
              0.103   0.055   0.025   0.082   0.097
   9  3.957   0.525   0.466   0.455   0.557   0.535   0.495   0.277   0.366
              0.070   0.017   0.018   0.068   0.108
  10  4.022   0.671   0.378   0.445   0.573   0.457   0.417   0.313   0.437
              0.108   0.071   0.025   0.050   0.079
  20  4.099   0.722   0.338   0.379   0.471   0.358   0.441   0.351   0.543
              0.169   0.059   0.043   0.112   0.114
  21  4.041   0.678   0.382   0.425   0.485   0.397   0.478   0.329   0.444
              0.131   0.075   0.039   0.063   0.116
  22  3.960   0.565   0.436   0.511   0.693   0.533   0.396   0.263   0.373
              0.056   0.029   0.016   0.043   0.046
  23  3.759   0.140   0.665   0.499   0.523   0.509   0.464   0.448   0.402
              0.025   0.019   0.011   0.034   0.022
  24  3.879   0.482   0.483   0.466   0.630   0.427   0.489   0.287   0.401
              0.061   0.029   0.013   0.053   0.058

Species: H                   
Atom  Qatom  Qorb
               1s      1s      1Ppy    1Ppz    1Ppx    
  11  1.059   0.582   0.335   0.025   0.054   0.063
  12  1.100   0.693   0.318   0.035   0.041   0.014
  13  1.037   0.479   0.363   0.070   0.066   0.060
  14  1.070   0.575   0.338   0.064   0.060   0.034
  15  1.096   0.685   0.327   0.043   0.033   0.008
  25  1.056   0.473   0.362   0.085   0.062   0.074
  26  1.063   0.590   0.331   0.059   0.050   0.033
  27  1.101   0.704   0.308   0.035   0.037   0.016
  28  1.081   0.678   0.312   0.036   0.031   0.024
  29  1.070   0.656   0.321   0.037   0.032   0.024
  30  1.070   0.657   0.320   0.031   0.037   0.026

Species: N                   
Atom  Qatom  Qorb
               2s      2s      2py     2pz     2px     2py     2pz     2px     
               2Pdxy   2Pdyz   2Pdz2   2Pdxz   2Pdx2-y2
   1  4.768   0.663   0.479   0.709   1.211   0.464   0.382   0.206   0.550
              0.023   0.027   0.011   0.012   0.033
   2  5.079   1.013   0.349   0.948   1.027   1.119   0.223   0.127   0.170
              0.022   0.021   0.012   0.021   0.027
   3  4.752   0.597   0.497   0.586   1.297   0.581   0.493   0.185   0.464
              0.015   0.003   0.003   0.016   0.016
   4  5.043   1.007   0.328   0.869   1.134   0.904   0.298   0.120   0.289
              0.022   0.018   0.009   0.018   0.027
   5  5.047   0.969   0.362   0.667   1.033   1.325   0.360   0.138   0.093
              0.025   0.022   0.011   0.017   0.025
  18  4.777   0.665   0.473   0.655   1.192   0.578   0.447   0.218   0.453
              0.030   0.008   0.010   0.026   0.021
  19  4.754   0.683   0.466   0.692   1.170   0.609   0.404   0.212   0.441
              0.022   0.012   0.005   0.018   0.021

Species: O                   
Atom  Qatom  Qorb
               2s      2s      2py     2pz     2px     2py     2pz     2px     
               2Pdxy   2Pdyz   2Pdz2   2Pdxz   2Pdx2-y2
  16  6.146   1.420   0.216   1.651   1.440   1.149   0.019   0.043   0.167
              0.010   0.001   0.003   0.015   0.011
  17  6.180   1.454   0.196   1.146   1.416   1.714   0.185   0.040  -0.011
              0.009   0.013   0.005   0.003   0.011

mulliken: Qtot =       98.000

* Maximum dynamic memory allocated =   159 MB

siesta:                 ==============================
                            Begin CG move =      1
                        ==============================

outcoor: Atomic coordinates (Ang):                          
   -5.73765418    3.86434254    2.98411653   3       1  N
   -7.83214807    4.65138030    3.21302997   3       2  N
  -10.07411365    2.75138245    4.11137207   3       3  N
   -8.41863642    1.11148914    4.22128230   3       4  N
   -6.07953340    1.51632383    3.64037559   3       5  N
   -6.57758921    4.92053532    2.89149076   1       6  C
   -7.78068017    3.31662056    3.52845999   1       7  C
   -8.79470135    2.39511448    3.96148396   1       8  C
   -7.11940449    0.77712100    4.04816530   1       9  C
   -6.48073586    2.78372961    3.39959040   1      10  C
   -4.71225059    3.84111054    2.77467133   2      11  H
   -6.21755618    5.94622912    2.56989620   2      12  H
  -10.78794525    2.07558015    4.48579837   2      13  H
  -10.35228036    3.72284853    3.94298478   2      14  H
   -6.89173805   -0.30661805    4.30381791   2      15  H
   -8.39370481   -2.25002298    5.54249999   4      16  O
  -11.94255437    0.71973085    5.25694375   4      17  O
  -10.50883619   -2.89278023    6.29851162   3      18  N
  -10.21635403   -0.80386903    5.39409887   3      19  N
   -9.62367767   -1.99012216    5.73265407   1      20  C
  -11.53254101   -0.44452427    5.57264956   1      21  C
  -12.42518656   -1.44862221    6.15419194   1      22  C
  -13.85529692   -1.14777563    6.33704824   1      23  C
  -11.82085873   -2.64573719    6.49672786   1      24  C
   -9.54998204   -0.06525635    4.93960009   2      25  H
  -10.08567971   -3.81075335    6.57508130   2      26  H
  -12.42274130   -3.47299128    6.96577067   2      27  H
  -14.42146195   -1.99594650    6.79376119   2      28  H
  -14.01051316   -0.24598063    6.98404648   2      29  H
  -14.34910095   -0.89859349    5.36197804   2      30  H

outcell: Unit cell vectors (Ang):
       17.696563    0.000000    0.000000
        0.000000   17.737093    0.000000
        0.000000    0.000000   11.879342

outcell: Cell vector modules (Ang)   :   17.696563   17.737093   11.879342
outcell: Cell angles (23,13,12) (deg):     90.0000     90.0000     90.0000
outcell: Cell volume (Ang**3)        :   3728.7543
New_DM. Step:     2
Re-using DM from previous geometry...
Re-using DM without extrapolation (not allowed)
Density Matrix sparsity pattern changed.

siesta: iscf   Eharris(eV)      E_KS(eV)   FreeEng(eV)   dDmax  Ef(eV)
siesta:    1    -4655.6339    -4655.3116    -4655.3116  0.1205 -2.9760
siesta:    2    -4656.2839    -4655.2003    -4655.2003  0.2411 -3.5512
siesta:    3    -4655.4996    -4655.3593    -4655.3593  0.0382 -3.0607
siesta:    4    -4655.4968    -4655.4158    -4655.4158  0.0234 -3.0919
siesta:    5    -4655.4933    -4655.4483    -4655.4483  0.0089 -3.0687
siesta:    6    -4655.4905    -4655.4704    -4655.4704  0.0034 -3.0550
siesta:    7    -4655.4903    -4655.4751    -4655.4751  0.0029 -3.0545
siesta:    8    -4655.4901    -4655.4802    -4655.4802  0.0035 -3.0543
siesta:    9    -4655.4900    -4655.4831    -4655.4831  0.0028 -3.0538
siesta:   10    -4655.4900    -4655.4864    -4655.4864  0.0017 -3.0531
siesta:   11    -4655.4900    -4655.4880    -4655.4880  0.0010 -3.0532
siesta:   12    -4655.4900    -4655.4893    -4655.4893  0.0007 -3.0537
siesta:   13    -4655.4900    -4655.4899    -4655.4899  0.0005 -3.0541
siesta:   14    -4655.4899    -4655.4904    -4655.4904  0.0002 -3.0544
siesta:   15    -4655.4900    -4655.4907    -4655.4907  0.0002 -3.0545
siesta:   16    -4655.4900    -4655.4907    -4655.4907  0.0002 -3.0546
siesta:   17    -4655.4900    -4655.4906    -4655.4906  0.0002 -3.0546
siesta:   18    -4655.4900    -4655.4904    -4655.4904  0.0001 -3.0546
siesta:   19    -4655.4900    -4655.4903    -4655.4903  0.0001 -3.0546
siesta:   20    -4655.4900    -4655.4902    -4655.4902  0.0001 -3.0546

siesta: E_KS(eV) =            -4655.4902

siesta: Atomic forces (eV/Ang):
     1    2.246211   -0.797326   -0.277542
     2   -0.052909    0.194066   -0.011388
     3   -1.276991    0.153448    0.291790
     4   -0.166045    0.216819    0.026807
     5   -0.062621    0.279621   -0.060981
     6   -0.158262    2.507414   -0.565006
     7   -0.453266   -1.042007    0.337955
     8    0.692683    0.230936   -0.187946
     9    0.444041   -1.593517    0.354815
    10   -0.388344   -0.137518    0.090698
    11   -1.060677    0.076444    0.209728
    12   -0.290813   -1.031010    0.304349
    13    0.364209    0.192147   -0.126588
    14    0.215776   -0.298235    0.028730
    15   -0.212184    0.878858   -0.212577
    16   -2.175538    0.483231    0.432003
    17    0.710535   -0.946520    0.576104
    18    1.342576   -1.716921    0.391353
    19    0.833211    1.006366   -0.636190
    20    2.545395   -0.444479   -0.518092
    21   -1.191161    1.536905   -0.151199
    22    1.239502   -0.739152   -0.010915
    23   -1.224016    0.318883    0.139569
    24   -2.060952    0.016519    0.459388
    25   -0.249072   -0.326900    0.197453
    26   -0.393775    0.974571   -0.309136
    27    0.468980    0.495971   -0.315397
    28    0.251913    0.196066   -0.124975
    29    0.108855   -0.244736   -0.194040
    30    0.197938   -0.060592    0.267692
----------------------------------------
   Tot    0.245196    0.379351    0.406463
----------------------------------------
   Max    2.545395
   Res    0.803261    sqrt( Sum f_i^2 / 3N )
----------------------------------------
   Max    2.545395    constrained

Stress-tensor-Voigt (kbar):        0.41        1.07        0.33        0.50       -0.43       -0.21
(Free)E + p*V (eV/cell)    -4656.8853
Target enthalpy (eV/cell)    -4655.4902

mulliken: Mulliken Atomic and Orbital Populations:

Species: C                   
Atom  Qatom  Qorb
               2s      2s      2py     2pz     2px     2py     2pz     2px     
               2Pdxy   2Pdyz   2Pdz2   2Pdxz   2Pdx2-y2
   6  3.998   0.579   0.425   0.468   0.639   0.507   0.436   0.281   0.394
              0.086   0.032   0.015   0.060   0.077
   7  3.989   0.575   0.427   0.459   0.664   0.489   0.418   0.305   0.418
              0.080   0.052   0.017   0.032   0.054
   8  3.997   0.679   0.381   0.492   0.523   0.396   0.407   0.320   0.437
              0.103   0.055   0.025   0.083   0.096
   9  3.979   0.555   0.452   0.482   0.556   0.541   0.467   0.277   0.364
              0.071   0.017   0.018   0.070   0.109
  10  4.032   0.672   0.376   0.449   0.580   0.463   0.414   0.313   0.433
              0.108   0.072   0.024   0.049   0.079
  20  4.100   0.728   0.335   0.400   0.489   0.344   0.426   0.341   0.548
              0.164   0.059   0.043   0.107   0.115
  21  4.040   0.679   0.380   0.412   0.496   0.414   0.481   0.322   0.437
              0.130   0.074   0.038   0.063   0.113
  22  3.950   0.550   0.444   0.514   0.688   0.503   0.392   0.267   0.398
              0.057   0.029   0.015   0.046   0.046
  23  3.779   0.169   0.653   0.512   0.534   0.503   0.448   0.432   0.413
              0.026   0.019   0.011   0.036   0.022
  24  3.911   0.519   0.465   0.488   0.633   0.453   0.465   0.282   0.389
              0.062   0.028   0.013   0.056   0.058

Species: H                   
Atom  Qatom  Qorb
               1s      1s      1Ppy    1Ppz    1Ppx    
  11  1.036   0.579   0.321   0.024   0.049   0.063
  12  1.088   0.703   0.300   0.034   0.038   0.013
  13  1.021   0.477   0.350   0.070   0.063   0.061
  14  1.059   0.574   0.331   0.063   0.057   0.034
  15  1.085   0.693   0.311   0.043   0.030   0.008
  25  1.025   0.454   0.349   0.087   0.059   0.076
  26  1.038   0.586   0.317   0.058   0.045   0.033
  27  1.088   0.707   0.296   0.034   0.035   0.015
  28  1.077   0.685   0.303   0.035   0.031   0.023
  29  1.065   0.663   0.311   0.037   0.032   0.023
  30  1.065   0.664   0.311   0.030   0.036   0.025

Species: N                   
Atom  Qatom  Qorb
               2s      2s      2py     2pz     2px     2py     2pz     2px     
               2Pdxy   2Pdyz   2Pdz2   2Pdxz   2Pdx2-y2
   1  4.750   0.647   0.488   0.669   1.185   0.473   0.418   0.219   0.540
              0.024   0.030   0.011   0.012   0.034
   2  5.072   1.005   0.353   0.946   1.031   1.102   0.229   0.129   0.174
              0.022   0.022   0.012   0.021   0.028
   3  4.762   0.616   0.492   0.608   1.289   0.577   0.474   0.182   0.470
              0.016   0.003   0.003   0.016   0.016
   4  5.042   1.007   0.329   0.867   1.140   0.884   0.298   0.123   0.298
              0.023   0.018   0.009   0.018   0.027
   5  5.050   0.975   0.361   0.676   1.039   1.305   0.353   0.138   0.099
              0.026   0.022   0.011   0.017   0.026
  18  4.748   0.641   0.487   0.654   1.156   0.530   0.445   0.235   0.497
              0.032   0.008   0.011   0.028   0.023
  19  4.741   0.669   0.474   0.686   1.149   0.589   0.412   0.218   0.460
              0.023   0.012   0.006   0.019   0.022

Species: O                   
Atom  Qatom  Qorb
               2s      2s      2py     2pz     2px     2py     2pz     2px     
               2Pdxy   2Pdyz   2Pdz2   2Pdxz   2Pdx2-y2
  16  6.193   1.477   0.190   1.697   1.481   1.154  -0.005   0.021   0.139
              0.009   0.001   0.003   0.014   0.011
  17  6.218   1.494   0.177   1.156   1.451   1.741   0.165   0.024  -0.028
              0.009   0.012   0.004   0.003   0.010

mulliken: Qtot =       98.000

* Maximum dynamic memory allocated =   159 MB

siesta:                 ==============================
                            Begin CG move =      2
                        ==============================

outcoor: Atomic coordinates (Ang):                          
   -5.72244648    3.86243436    2.98171489   3       1  N
   -7.82712308    4.65609297    3.20910803   3       2  N
  -10.08474342    2.75197915    4.11351544   3       3  N
   -8.41343048    1.11298263    4.21899550   3       4  N
   -6.08542336    1.51494504    3.64166582   3       5  N
   -6.57883592    4.94273311    2.88641177   1       6  C
   -7.78258786    3.30771358    3.53211785   1       7  C
   -8.79096819    2.39523299    3.96064024   1       8  C
   -7.11554474    0.75886440    4.05247695   1       9  C
   -6.48153522    2.78207645    3.40050684   1      10  C
   -4.72229103    3.84166270    2.77649203   2      11  H
   -6.22260046    5.93215572    2.57447202   2      12  H
  -10.78033469    2.08471390    4.48105674   2      13  H
  -10.35129111    3.71525237    3.94432978   2      14  H
   -6.89424632   -0.29270872    4.30080440   2      15  H
   -8.40634375   -2.24995349    5.55201055   4      16  O
  -11.94473159    0.70739517    5.24874625   4      17  O
  -10.50086148   -2.90659831    6.30221491   3      18  N
  -10.20477301   -0.79310326    5.38804262   3      19  N
   -9.60596133   -1.99304597    5.73014294   1      20  C
  -11.54002143   -0.43326627    5.56972734   1      21  C
  -12.41641928   -1.45701434    6.15603863   1      22  C
  -13.87258681   -1.14326525    6.33878213   1      23  C
  -11.83718894   -2.64990852    6.50172301   1      24  C
   -9.55963713   -0.07489176    4.94558826   2      25  H
  -10.08990211   -3.80231009    6.57264994   2      26  H
  -12.41510985   -3.46240743    6.96033034   2      27  H
  -14.41657882   -1.98859848    6.78962573   2      28  H
  -14.00959841   -0.25394921    6.97834079   2      29  H
  -14.34514497   -0.90087140    5.37043284   2      30  H

outcell: Unit cell vectors (Ang):
       17.696563    0.000000    0.000000
        0.000000   17.737093    0.000000
        0.000000    0.000000   11.879342

outcell: Cell vector modules (Ang)   :   17.696563   17.737093   11.879342
outcell: Cell angles (23,13,12) (deg):     90.0000     90.0000     90.0000
outcell: Cell volume (Ang**3)        :   3728.7543
New_DM. Step:     3
Re-using DM from previous geometry...
Re-using DM without extrapolation (not allowed)
Density Matrix sparsity pattern changed.

siesta: iscf   Eharris(eV)      E_KS(eV)   FreeEng(eV)   dDmax  Ef(eV)
siesta:    1    -4655.8114    -4655.7558    -4655.7558  0.0836 -3.1929
siesta:    2    -4656.1017    -4655.6050    -4655.6050  0.1317 -3.2261
siesta:    3    -4655.7489    -4655.7385    -4655.7385  0.0279 -3.1437
siesta:    4    -4655.7454    -4655.7301    -4655.7301  0.0092 -3.1361
siesta:    5    -4655.7450    -4655.7269    -4655.7269  0.0065 -3.1359
siesta:    6    -4655.7435    -4655.7346    -4655.7346  0.0021 -3.1465
siesta:    7    -4655.7434    -4655.7359    -4655.7359  0.0019 -3.1480
siesta:    8    -4655.7433    -4655.7393    -4655.7393  0.0012 -3.1503
siesta:    9    -4655.7432    -4655.7406    -4655.7406  0.0006 -3.1496
siesta:   10    -4655.7433    -4655.7418    -4655.7418  0.0003 -3.1489
siesta:   11    -4655.7433    -4655.7429    -4655.7429  0.0002 -3.1481
siesta:   12    -4655.7433    -4655.7433    -4655.7433  0.0001 -3.1478
siesta:   13    -4655.7433    -4655.7433    -4655.7433  0.0001 -3.1478
siesta:   14    -4655.7433    -4655.7433    -4655.7433  0.0001 -3.1475

siesta: E_KS(eV) =            -4655.7433

siesta: Atomic forces (eV/Ang):
     1    0.286674   -0.155947   -0.028423
     2   -0.157752   -0.082399    0.109035
     3   -0.115973    0.013997    0.038350
     4   -0.197974    0.029821    0.070486
     5    0.146306    0.129024   -0.055818
     6    0.029791    0.169354   -0.045203
     7   -0.089573   -0.065738    0.001356
     8    0.109394    0.072840   -0.035646
     9    0.037430   -0.027833    0.000928
    10   -0.096539    0.007108    0.001657
    11   -0.088485    0.008590    0.022621
    12    0.026725    0.018436   -0.015202
    13   -0.084522   -0.179097    0.084621
    14    0.039416    0.111490   -0.026751
    15   -0.007943   -0.071315    0.008113
    16   -0.386647    0.161485   -0.132173
    17    0.290801    0.026970    0.431798
    18    0.192766   -0.162079    0.024218
    19   -0.033730    0.031907   -0.045264
    20    0.342071   -0.072001   -0.092189
    21   -0.155329    0.182925    0.020968
    22    0.115803    0.002334   -0.048517
    23    0.123379   -0.028294   -0.008683
    24   -0.166477    0.101448    0.007603
    25    0.162763    0.135099   -0.085883
    26   -0.019164    0.098327   -0.038323
    27   -0.050534   -0.114813    0.039550
    28   -0.057635   -0.137773    0.073205
    29    0.006454    0.136536    0.091531
    30   -0.046185    0.042467   -0.141243
----------------------------------------
   Tot    0.155311    0.382870    0.226723
----------------------------------------
   Max    0.431798
   Res    0.122631    sqrt( Sum f_i^2 / 3N )
----------------------------------------
   Max    0.431798    constrained

Stress-tensor-Voigt (kbar):        0.09       -0.19       -0.12        0.19        0.01       -0.09
(Free)E + p*V (eV/cell)    -4655.5723
Target enthalpy (eV/cell)    -4655.7433

mulliken: Mulliken Atomic and Orbital Populations:

Species: C                   
Atom  Qatom  Qorb
               2s      2s      2py     2pz     2px     2py     2pz     2px     
               2Pdxy   2Pdyz   2Pdz2   2Pdxz   2Pdx2-y2
   6  3.971   0.551   0.440   0.443   0.640   0.501   0.455   0.279   0.396
              0.086   0.030   0.015   0.058   0.076
   7  3.983   0.572   0.428   0.450   0.665   0.491   0.420   0.304   0.421
              0.077   0.051   0.017   0.032   0.055
   8  3.992   0.674   0.383   0.493   0.527   0.383   0.407   0.319   0.444
              0.103   0.055   0.025   0.083   0.097
   9  3.964   0.535   0.461   0.464   0.557   0.537   0.486   0.277   0.366
              0.070   0.017   0.018   0.068   0.108
  10  4.025   0.671   0.377   0.446   0.575   0.459   0.416   0.313   0.435
              0.108   0.071   0.025   0.049   0.079
  20  4.099   0.724   0.337   0.385   0.477   0.353   0.437   0.348   0.545
              0.168   0.059   0.043   0.110   0.114
  21  4.041   0.678   0.382   0.421   0.488   0.402   0.479   0.327   0.442
              0.131   0.074   0.039   0.063   0.115
  22  3.957   0.561   0.439   0.512   0.692   0.524   0.395   0.264   0.381
              0.056   0.029   0.015   0.044   0.046
  23  3.765   0.149   0.661   0.503   0.526   0.507   0.459   0.443   0.405
              0.025   0.019   0.011   0.034   0.022
  24  3.889   0.493   0.478   0.473   0.631   0.434   0.481   0.285   0.398
              0.061   0.029   0.013   0.054   0.058

Species: H                   
Atom  Qatom  Qorb
               1s      1s      1Ppy    1Ppz    1Ppx    
  11  1.052   0.581   0.331   0.025   0.052   0.063
  12  1.096   0.695   0.313   0.034   0.040   0.014
  13  1.032   0.478   0.359   0.070   0.065   0.060
  14  1.067   0.575   0.336   0.063   0.059   0.034
  15  1.092   0.687   0.323   0.043   0.032   0.008
  25  1.047   0.467   0.358   0.085   0.061   0.075
  26  1.055   0.588   0.327   0.059   0.048   0.033
  27  1.096   0.705   0.305   0.035   0.036   0.016
  28  1.080   0.680   0.310   0.036   0.031   0.024
  29  1.069   0.658   0.318   0.037   0.032   0.023
  30  1.069   0.659   0.317   0.031   0.036   0.025

Species: N                   
Atom  Qatom  Qorb
               2s      2s      2py     2pz     2px     2py     2pz     2px     
               2Pdxy   2Pdyz   2Pdz2   2Pdxz   2Pdx2-y2
   1  4.763   0.659   0.481   0.697   1.203   0.467   0.393   0.210   0.547
              0.023   0.028   0.011   0.012   0.033
   2  5.077   1.011   0.350   0.948   1.028   1.114   0.225   0.127   0.171
              0.022   0.021   0.012   0.021   0.028
   3  4.755   0.603   0.495   0.593   1.295   0.579   0.487   0.184   0.466
              0.015   0.003   0.003   0.016   0.016
   4  5.043   1.007   0.328   0.868   1.136   0.898   0.298   0.121   0.292
              0.022   0.018   0.009   0.018   0.027
   5  5.048   0.971   0.362   0.670   1.035   1.319   0.358   0.138   0.095
              0.025   0.022   0.011   0.017   0.025
  18  4.768   0.658   0.477   0.655   1.181   0.564   0.446   0.223   0.466
              0.031   0.008   0.011   0.026   0.022
  19  4.750   0.679   0.468   0.691   1.164   0.603   0.406   0.213   0.446
              0.022   0.012   0.006   0.018   0.021

Species: O                   
Atom  Qatom  Qorb
               2s      2s      2py     2pz     2px     2py     2pz     2px     
               2Pdxy   2Pdyz   2Pdz2   2Pdxz   2Pdx2-y2
  16  6.160   1.438   0.208   1.666   1.453   1.150   0.011   0.036   0.158
              0.010   0.001   0.003   0.015   0.011
  17  6.192   1.466   0.190   1.149   1.427   1.723   0.178   0.035  -0.016
              0.009   0.013   0.005   0.003   0.011

mulliken: Qtot =       98.000

cgvc: Finished line minimization    1.  Mean atomic displacement =    0.0111

* Maximum dynamic memory allocated =   159 MB

siesta:                 ==============================
                            Begin CG move =      3
                        ==============================

outcoor: Atomic coordinates (Ang):                          
   -5.71815030    3.85878687    2.98147298   3       1  N
   -7.83224481    4.65298782    3.21274046   3       2  N
  -10.08555953    2.75221895    4.11406773   3       3  N
   -8.41963158    1.11344775    4.22129253   3       4  N
   -6.08042008    1.51857176    3.63995401   3       5  N
   -6.57780739    4.94255047    2.88628635   1       6  C
   -7.78451579    3.30784429    3.53139986   1       7  C
   -8.78890257    2.39709578    3.95989041   1       8  C
   -7.11536969    0.76190219    4.05161326   1       9  C
   -6.48387182    2.78260098    3.40036110   1      10  C
   -4.72251631    3.84177156    2.77670324   2      11  H
   -6.22086947    5.93553099    2.57313603   2      12  H
  -10.78409148    2.07819318    4.48422542   2      13  H
  -10.35047359    3.71970490    3.94335978   2      14  H
   -6.89393566   -0.29742022    4.30163505   2      15  H
   -8.41375896   -2.24578394    5.54662799   4      16  O
  -11.93674908    0.71063376    5.26162133   4      17  O
  -10.49750912   -2.90795252    6.30207989   3      18  N
  -10.20803134   -0.79449318    5.38811684   3      19  N
   -9.60074642   -1.99430942    5.72827148   1      20  C
  -11.54250561   -0.43084488    5.57087225   1      21  C
  -12.41522410   -1.45522598    6.15440142   1      22  C
  -13.86583038   -1.14492697    6.33820017   1      23  C
  -11.83813986   -2.64642131    6.50089152   1      24  C
   -9.55343225   -0.06940767    4.94213024   2      25  H
  -10.08952927   -3.80150098    6.57215764   2      26  H
  -12.41799038   -3.46756122    6.96247515   2      27  H
  -14.41907746   -1.99368089    6.79237382   2      28  H
  -14.00961954   -0.24877108    6.98188697   2      29  H
  -14.34715607   -0.89930214    5.36503266   2      30  H

outcell: Unit cell vectors (Ang):
       17.696563    0.000000    0.000000
        0.000000   17.737093    0.000000
        0.000000    0.000000   11.879342

outcell: Cell vector modules (Ang)   :   17.696563   17.737093   11.879342
outcell: Cell angles (23,13,12) (deg):     90.0000     90.0000     90.0000
outcell: Cell volume (Ang**3)        :   3728.7543
New_DM. Step:     4
Re-using DM from previous geometry...
Re-using DM without extrapolation (not allowed)
Density Matrix sparsity pattern changed.

siesta: iscf   Eharris(eV)      E_KS(eV)   FreeEng(eV)   dDmax  Ef(eV)
siesta:    1    -4655.7611    -4655.6607    -4655.6607  0.0325 -3.0610
siesta:    2    -4655.8087    -4655.7271    -4655.7271  0.0580 -3.3234
siesta:    3    -4655.7507    -4655.6907    -4655.6907  0.0125 -3.1321
siesta:    4    -4655.7504    -4655.7384    -4655.7384  0.0048 -3.1859
siesta:    5    -4655.7502    -4655.7463    -4655.7463  0.0025 -3.1868
siesta:    6    -4655.7500    -4655.7486    -4655.7486  0.0012 -3.1697
siesta:    7    -4655.7500    -4655.7488    -4655.7488  0.0009 -3.1676
siesta:    8    -4655.7500    -4655.7497    -4655.7497  0.0007 -3.1655
siesta:    9    -4655.7500    -4655.7502    -4655.7502  0.0006 -3.1664
siesta:   10    -4655.7500    -4655.7506    -4655.7506  0.0004 -3.1669
siesta:   11    -4655.7500    -4655.7505    -4655.7505  0.0002 -3.1667
siesta:   12    -4655.7500    -4655.7503    -4655.7503  0.0001 -3.1666
siesta:   13    -4655.7500    -4655.7502    -4655.7502  0.0001 -3.1667

siesta: E_KS(eV) =            -4655.7501

siesta: Atomic forces (eV/Ang):
     1   -0.209453    0.072574    0.011892
     2    0.215627    0.119569   -0.045868
     3   -0.205839    0.021272    0.065846
     4    0.227809   -0.005103   -0.003882
     5   -0.155451   -0.054599    0.046217
     6   -0.105592    0.109221    0.008889
     7    0.028861   -0.101103    0.006111
     8   -0.244631   -0.010296    0.057397
     9    0.031776   -0.242300    0.068491
    10    0.098338    0.028875   -0.045609
    11    0.100698   -0.025374   -0.009891
    12   -0.025940   -0.101945    0.026786
    13    0.093153    0.008176   -0.000343
    14    0.054527   -0.049663    0.008221
    15   -0.048779    0.178181   -0.052043
    16    0.444233   -0.022800   -0.115025
    17    0.064932    0.359690    0.186194
    18   -0.047697    0.017767    0.010855
    19    0.238049    0.237565   -0.201337
    20   -0.592114    0.145562    0.009162
    21    0.145238   -0.089628    0.117447
    22    0.095727   -0.028049   -0.037181
    23   -0.364077    0.097582    0.043212
    24   -0.041949   -0.272756    0.118022
    25   -0.058597   -0.063999    0.047753
    26    0.014855   -0.025504    0.004008
    27    0.081900    0.118764   -0.078771
    28    0.101456    0.065769   -0.041122
    29    0.054287   -0.076759   -0.060798
    30    0.078265   -0.019205    0.088016
----------------------------------------
   Tot    0.069612    0.391486    0.232652
----------------------------------------
   Max    0.592114
   Res    0.140058    sqrt( Sum f_i^2 / 3N )
----------------------------------------
   Max    0.592114    constrained

Stress-tensor-Voigt (kbar):        0.28       -0.06        0.04        0.53       -0.06       -0.21
(Free)E + p*V (eV/cell)    -4655.9549
Target enthalpy (eV/cell)    -4655.7501

mulliken: Mulliken Atomic and Orbital Populations:

Species: C                   
Atom  Qatom  Qorb
               2s      2s      2py     2pz     2px     2py     2pz     2px     
               2Pdxy   2Pdyz   2Pdz2   2Pdxz   2Pdx2-y2
   6  3.966   0.553   0.441   0.444   0.646   0.497   0.452   0.275   0.396
              0.085   0.030   0.015   0.057   0.076
   7  3.985   0.570   0.429   0.451   0.661   0.488   0.421   0.308   0.424
              0.078   0.051   0.017   0.032   0.055
   8  3.990   0.673   0.384   0.492   0.526   0.382   0.408   0.319   0.445
              0.102   0.055   0.025   0.082   0.097
   9  3.961   0.539   0.460   0.468   0.560   0.531   0.481   0.274   0.368
              0.070   0.016   0.018   0.068   0.108
  10  4.025   0.671   0.378   0.446   0.573   0.458   0.416   0.314   0.436
              0.108   0.071   0.025   0.050   0.080
  20  4.104   0.723   0.337   0.382   0.472   0.358   0.440   0.352   0.544
              0.170   0.059   0.043   0.112   0.114
  21  4.044   0.678   0.382   0.423   0.486   0.402   0.480   0.328   0.443
              0.132   0.076   0.038   0.063   0.115
  22  3.955   0.555   0.441   0.509   0.688   0.520   0.398   0.268   0.385
              0.056   0.029   0.016   0.044   0.046
  23  3.773   0.162   0.656   0.509   0.532   0.509   0.452   0.436   0.405
              0.026   0.019   0.011   0.035   0.022
  24  3.889   0.497   0.477   0.477   0.635   0.434   0.477   0.283   0.396
              0.061   0.029   0.013   0.054   0.058

Species: H                   
Atom  Qatom  Qorb
               1s      1s      1Ppy    1Ppz    1Ppx    
  11  1.054   0.580   0.333   0.025   0.053   0.063
  12  1.095   0.695   0.312   0.035   0.040   0.014
  13  1.027   0.476   0.356   0.070   0.065   0.060
  14  1.065   0.575   0.334   0.063   0.059   0.034
  15  1.090   0.687   0.320   0.043   0.032   0.009
  25  1.039   0.462   0.356   0.086   0.061   0.075
  26  1.058   0.590   0.328   0.059   0.049   0.033
  27  1.094   0.706   0.302   0.035   0.036   0.016
  28  1.079   0.683   0.306   0.035   0.031   0.024
  29  1.067   0.661   0.314   0.037   0.032   0.023
  30  1.068   0.662   0.314   0.030   0.036   0.025

Species: N                   
Atom  Qatom  Qorb
               2s      2s      2py     2pz     2px     2py     2pz     2px     
               2Pdxy   2Pdyz   2Pdz2   2Pdxz   2Pdx2-y2
   1  4.762   0.658   0.481   0.701   1.203   0.464   0.389   0.209   0.550
              0.023   0.028   0.011   0.012   0.033
   2  5.079   1.015   0.348   0.947   1.030   1.115   0.226   0.126   0.168
              0.022   0.022   0.012   0.021   0.028
   3  4.765   0.616   0.490   0.599   1.300   0.587   0.481   0.180   0.459
              0.015   0.003   0.003   0.016   0.016
   4  5.046   1.015   0.326   0.867   1.138   0.901   0.298   0.120   0.287
              0.023   0.018   0.009   0.018   0.027
   5  5.050   0.976   0.361   0.673   1.037   1.316   0.355   0.137   0.094
              0.026   0.022   0.011   0.017   0.025
  18  4.772   0.663   0.475   0.655   1.186   0.570   0.446   0.221   0.460
              0.031   0.008   0.010   0.026   0.022
  19  4.763   0.693   0.462   0.704   1.172   0.610   0.396   0.207   0.440
              0.022   0.012   0.005   0.018   0.021

Species: O                   
Atom  Qatom  Qorb
               2s      2s      2py     2pz     2px     2py     2pz     2px     
               2Pdxy   2Pdyz   2Pdz2   2Pdxz   2Pdx2-y2
  16  6.147   1.421   0.215   1.654   1.442   1.148   0.018   0.042   0.167
              0.010   0.001   0.004   0.015   0.011
  17  6.187   1.458   0.193   1.142   1.424   1.722   0.184   0.037  -0.015
              0.009   0.013   0.005   0.003   0.011

mulliken: Qtot =       98.000

* Maximum dynamic memory allocated =   159 MB

siesta:                 ==============================
                            Begin CG move =      4
                        ==============================

outcoor: Atomic coordinates (Ang):                          
   -5.71976182    3.86015506    2.98156373   3       1  N
   -7.83032362    4.65415258    3.21137792   3       2  N
  -10.08525340    2.75212900    4.11386056   3       3  N
   -8.41730551    1.11327328    4.22043090   3       4  N
   -6.08229684    1.51721135    3.64059612   3       5  N
   -6.57819320    4.94261898    2.88633340   1       6  C
   -7.78379262    3.30779526    3.53166918   1       7  C
   -8.78967740    2.39639704    3.96017168   1       8  C
   -7.11543535    0.76076270    4.05193723   1       9  C
   -6.48299535    2.78240423    3.40041577   1      10  C
   -4.72243181    3.84173073    2.77662401   2      11  H
   -6.22151877    5.93426491    2.57363717   2      12  H
  -10.78268229    2.08063914    4.48303683   2      13  H
  -10.35078024    3.71803473    3.94372363   2      14  H
   -6.89405219   -0.29565291    4.30132346   2      15  H
   -8.41097747   -2.24734796    5.54864702   4      16  O
  -11.93974336    0.70941895    5.25679182   4      17  O
  -10.49876661   -2.90744455    6.30213054   3      18  N
  -10.20680912   -0.79397181    5.38808900   3      19  N
   -9.60270256   -1.99383549    5.72897347   1      20  C
  -11.54157378   -0.43175315    5.57044279   1      21  C
  -12.41567242   -1.45589681    6.15501554   1      22  C
  -13.86836475   -1.14430365    6.33841847   1      23  C
  -11.83778316   -2.64772938    6.50120342   1      24  C
   -9.55575973   -0.07146478    4.94342736   2      25  H
  -10.08966912   -3.80180448    6.57234230   2      26  H
  -12.41690988   -3.46562800    6.96167062   2      27  H
  -14.41814021   -1.99177445    6.79134300   2      28  H
  -14.00961162   -0.25071342    6.98055678   2      29  H
  -14.34640169   -0.89989078    5.36705830   2      30  H

outcell: Unit cell vectors (Ang):
       17.696563    0.000000    0.000000
        0.000000   17.737093    0.000000
        0.000000    0.000000   11.879342

outcell: Cell vector modules (Ang)   :   17.696563   17.737093   11.879342
outcell: Cell angles (23,13,12) (deg):     90.0000     90.0000     90.0000
outcell: Cell volume (Ang**3)        :   3728.7543
New_DM. Step:     5
Re-using DM from previous geometry...
Re-using DM without extrapolation (not allowed)
Density Matrix sparsity pattern changed.

siesta: iscf   Eharris(eV)      E_KS(eV)   FreeEng(eV)   dDmax  Ef(eV)
siesta:    1    -4655.7552    -4655.7825    -4655.7825  0.0122 -3.1997
siesta:    2    -4655.7621    -4655.7504    -4655.7504  0.0219 -3.1148
siesta:    3    -4655.7538    -4655.7724    -4655.7724  0.0048 -3.1719
siesta:    4    -4655.7537    -4655.7560    -4655.7560  0.0015 -3.1486
siesta:    5    -4655.7537    -4655.7548    -4655.7548  0.0007 -3.1548
siesta:    6    -4655.7537    -4655.7542    -4655.7542  0.0004 -3.1575
siesta:    7    -4655.7537    -4655.7539    -4655.7539  0.0005 -3.1579
siesta:    8    -4655.7537    -4655.7535    -4655.7535  0.0003 -3.1583
siesta:    9    -4655.7537    -4655.7535    -4655.7535  0.0003 -3.1584
siesta:   10    -4655.7537    -4655.7535    -4655.7535  0.0001 -3.1585

siesta: E_KS(eV) =            -4655.7535

siesta: Atomic forces (eV/Ang):
     1   -0.024797   -0.014890   -0.002106
     2    0.079192    0.047846    0.009940
     3   -0.172464    0.018280    0.055832
     4    0.069206    0.009466    0.023227
     5   -0.039385    0.019142    0.006536
     6   -0.057258    0.130648   -0.010543
     7   -0.015865   -0.087800    0.004641
     8   -0.111864    0.021287    0.022420
     9    0.033728   -0.162495    0.043405
    10    0.025527    0.021091   -0.028023
    11    0.028174   -0.012572    0.002519
    12   -0.006239   -0.057160    0.011153
    13    0.027760   -0.060890    0.030785
    14    0.049183    0.010281   -0.004617
    15   -0.034059    0.085804   -0.030126
    16    0.128286    0.046880   -0.120448
    17    0.149733    0.234928    0.295772
    18    0.045631   -0.052562    0.015865
    19    0.135026    0.164767   -0.145605
    20   -0.235680    0.063344   -0.031056
    21    0.032792    0.013417    0.083069
    22    0.103329   -0.016826   -0.041069
    23   -0.182076    0.050705    0.023759
    24   -0.089659   -0.134039    0.077374
    25    0.021678    0.007831   -0.000800
    26    0.002096    0.021570   -0.011936
    27    0.031568    0.029543   -0.033326
    28    0.042589   -0.009600    0.001172
    29    0.037029    0.001188   -0.005314
    30    0.032023    0.003911    0.004047
----------------------------------------
   Tot    0.105203    0.393097    0.246549
----------------------------------------
   Max    0.295772
   Res    0.079799    sqrt( Sum f_i^2 / 3N )
----------------------------------------
   Max    0.295772    constrained

Stress-tensor-Voigt (kbar):        0.21       -0.11       -0.02        0.40       -0.03       -0.17
(Free)E + p*V (eV/cell)    -4655.8137
Target enthalpy (eV/cell)    -4655.7535

mulliken: Mulliken Atomic and Orbital Populations:

Species: C                   
Atom  Qatom  Qorb
               2s      2s      2py     2pz     2px     2py     2pz     2px     
               2Pdxy   2Pdyz   2Pdz2   2Pdxz   2Pdx2-y2
   6  3.968   0.552   0.441   0.444   0.644   0.498   0.453   0.277   0.396
              0.086   0.030   0.015   0.058   0.076
   7  3.984   0.571   0.428   0.450   0.662   0.489   0.421   0.306   0.423
              0.078   0.051   0.017   0.032   0.055
   8  3.991   0.673   0.384   0.492   0.526   0.382   0.408   0.319   0.445
              0.103   0.055   0.025   0.082   0.097
   9  3.962   0.537   0.461   0.466   0.559   0.533   0.483   0.275   0.367
              0.070   0.016   0.018   0.068   0.108
  10  4.025   0.671   0.378   0.446   0.574   0.458   0.416   0.313   0.436
              0.108   0.071   0.025   0.050   0.080
  20  4.102   0.723   0.337   0.383   0.474   0.356   0.438   0.350   0.544
              0.169   0.059   0.043   0.111   0.114
  21  4.043   0.678   0.382   0.422   0.487   0.402   0.480   0.328   0.442
              0.132   0.075   0.038   0.063   0.115
  22  3.956   0.557   0.440   0.510   0.690   0.521   0.397   0.266   0.384
              0.056   0.029   0.015   0.044   0.046
  23  3.770   0.157   0.658   0.507   0.530   0.508   0.455   0.439   0.405
              0.026   0.019   0.011   0.035   0.022
  24  3.889   0.496   0.477   0.476   0.633   0.434   0.479   0.284   0.397
              0.061   0.029   0.013   0.054   0.058

Species: H                   
Atom  Qatom  Qorb
               1s      1s      1Ppy    1Ppz    1Ppx    
  11  1.053   0.580   0.332   0.025   0.053   0.063
  12  1.095   0.695   0.312   0.034   0.040   0.014
  13  1.029   0.477   0.357   0.070   0.065   0.060
  14  1.065   0.575   0.335   0.063   0.059   0.034
  15  1.091   0.687   0.321   0.043   0.032   0.009
  25  1.042   0.464   0.357   0.086   0.061   0.075
  26  1.057   0.589   0.328   0.059   0.049   0.033
  27  1.095   0.705   0.303   0.035   0.036   0.016
  28  1.079   0.682   0.308   0.035   0.031   0.024
  29  1.068   0.660   0.316   0.037   0.032   0.023
  30  1.068   0.661   0.315   0.030   0.036   0.025

Species: N                   
Atom  Qatom  Qorb
               2s      2s      2py     2pz     2px     2py     2pz     2px     
               2Pdxy   2Pdyz   2Pdz2   2Pdxz   2Pdx2-y2
   1  4.763   0.659   0.481   0.700   1.203   0.465   0.391   0.209   0.548
              0.023   0.028   0.011   0.012   0.033
   2  5.078   1.014   0.349   0.947   1.029   1.115   0.226   0.126   0.169
              0.022   0.021   0.012   0.021   0.028
   3  4.761   0.611   0.492   0.597   1.298   0.584   0.483   0.182   0.462
              0.015   0.003   0.003   0.016   0.016
   4  5.045   1.012   0.327   0.867   1.137   0.900   0.298   0.120   0.289
              0.023   0.018   0.009   0.018   0.027
   5  5.049   0.974   0.361   0.672   1.036   1.317   0.356   0.137   0.095
              0.026   0.022   0.011   0.017   0.025
  18  4.771   0.661   0.476   0.655   1.184   0.568   0.446   0.222   0.462
              0.031   0.008   0.011   0.026   0.022
  19  4.758   0.687   0.465   0.699   1.169   0.608   0.400   0.210   0.442
              0.022   0.012   0.006   0.018   0.021

Species: O                   
Atom  Qatom  Qorb
               2s      2s      2py     2pz     2px     2py     2pz     2px     
               2Pdxy   2Pdyz   2Pdz2   2Pdxz   2Pdx2-y2
  16  6.152   1.428   0.212   1.659   1.446   1.149   0.015   0.040   0.163
              0.010   0.001   0.003   0.015   0.011
  17  6.189   1.461   0.192   1.145   1.425   1.722   0.182   0.036  -0.015
              0.009   0.013   0.005   0.003   0.011

mulliken: Qtot =       98.000

cgvc: Finished line minimization    2.  Mean atomic displacement =    0.0070

* Maximum dynamic memory allocated =   159 MB

siesta:                 ==============================
                            Begin CG move =      5
                        ==============================

outcoor: Atomic coordinates (Ang):                          
   -5.71898433    3.85867017    2.98143959   3       1  N
   -7.83011164    4.65427728    3.21274451   3       2  N
  -10.08946676    2.75262364    4.11531484   3       3  N
   -8.41766099    1.11363627    4.22168384   3       4  N
   -6.08163247    1.51878731    3.64020959   3       5  N
   -6.57918475    4.94555975    2.88605217   1       6  C
   -7.78476093    3.30582147    3.53155065   1       7  C
   -8.79159695    2.39746935    3.96045113   1       8  C
   -7.11460652    0.75798602    4.05266255   1       9  C
[...]

Species: O                   
Atom  Qatom  Qorb
               2s      2s      2py     2pz     2px     2py     2pz     2px     
               2Pdxy   2Pdyz   2Pdz2   2Pdxz   2Pdx2-y2
  16  6.159   1.434   0.209   1.668   1.447   1.151   0.012   0.037   0.161
              0.010   0.001   0.003   0.015   0.011
  17  6.193   1.468   0.188   1.135   1.434   1.724   0.189   0.034  -0.018
              0.009   0.013   0.004   0.003   0.011

mulliken: Qtot =       98.000

* Maximum dynamic memory allocated =   164 MB

siesta:                 ==============================
                            Begin CG move =     66
                        ==============================

outcoor: Atomic coordinates (Ang):                          
   -5.75085625    3.86652498    2.98130984   3       1  N
   -7.84964707    4.68289719    3.23869511   3       2  N
  -10.11320233    2.77133356    4.20916461   3       3  N
   -8.42501024    1.15380222    4.30086548   3       4  N
   -6.11006755    1.53364930    3.65636313   3       5  N
   -6.60069800    4.95807289    2.89364216   1       6  C
   -7.81307647    3.33530394    3.57158604   1       7  C
   -8.81620670    2.43140723    4.03173090   1       8  C
   -7.13289790    0.78564971    4.10397825   1       9  C
   -6.51584752    2.79922081    3.41917330   1      10  C
   -4.75421883    3.83362777    2.76853440   2      11  H
   -6.23659820    5.94058027    2.56929627   2      12  H
  -10.79703482    2.08207325    4.58517587   2      13  H
  -10.38815421    3.73089626    4.02019477   2      14  H
   -6.91846739   -0.26890399    4.35650771   2      15  H
   -8.38273532   -2.22126364    5.54368395   4      16  O
  -11.90545622    0.76361384    5.27544779   4      17  O
  -10.48350476   -2.88366755    6.25300775   3      18  N
  -10.16077743   -0.74047910    5.38307389   3      19  N
   -9.57860397   -1.95615290    5.70897011   1      20  C
  -11.49632909   -0.38216436    5.57202568   1      21  C
  -12.38020004   -1.41232568    6.13353577   1      22  C
  -13.82928453   -1.07507921    6.33796236   1      23  C
  -11.82193677   -2.62155341    6.45406126   1      24  C
   -9.49364422   -0.00230876    4.96359124   2      25  H
  -10.07287384   -3.78056895    6.51037630   2      26  H
  -12.40952562   -3.44286476    6.89398208   2      27  H
  -14.38114831   -1.91832311    6.79544841   2      28  H
  -13.93388614   -0.18149497    6.98610967   2      29  H
  -14.31273222   -0.81945611    5.37338291   2      30  H

outcell: Unit cell vectors (Ang):
       17.696563    0.000000    0.000000
        0.000000   17.737093    0.000000
        0.000000    0.000000   11.879342

outcell: Cell vector modules (Ang)   :   17.696563   17.737093   11.879342
outcell: Cell angles (23,13,12) (deg):     90.0000     90.0000     90.0000
outcell: Cell volume (Ang**3)        :   3728.7543
New_DM. Step:    67
Re-using DM from previous geometry...
Re-using DM without extrapolation (not allowed)

siesta: iscf   Eharris(eV)      E_KS(eV)   FreeEng(eV)   dDmax  Ef(eV)
siesta:    1    -4655.7920    -4655.7913    -4655.7913  0.0017 -3.0770
siesta:    2    -4655.7923    -4655.7918    -4655.7918  0.0032 -3.0929
siesta:    3    -4655.7919    -4655.7915    -4655.7915  0.0010 -3.0817
siesta:    4    -4655.7919    -4655.7919    -4655.7919  0.0001 -3.0823
siesta:    5    -4655.7919    -4655.7919    -4655.7919  0.0001 -3.0818

siesta: E_KS(eV) =            -4655.7919

siesta: Atomic forces (eV/Ang):
     1    0.029760    0.001747   -0.015922
     2    0.003475    0.010274   -0.014907
     3    0.007410   -0.013243   -0.006439
     4    0.018486    0.016487   -0.017219
     5    0.011385    0.001664   -0.006658
     6   -0.024756   -0.012404    0.006178
     7    0.018960   -0.011241   -0.001228
     8    0.010519    0.001397   -0.009603
     9   -0.007832    0.005123    0.005594
    10   -0.002180   -0.006831    0.000153
    11   -0.020673    0.002894    0.000045
    12   -0.001722    0.025865   -0.010363
    13   -0.000394   -0.005327   -0.004379
    14   -0.008720    0.014430    0.010285
    15    0.008838    0.007961   -0.009118
    16   -0.017611    0.001774    0.004746
    17    0.005409    0.024830    0.006445
    18    0.010700   -0.000639   -0.011198
    19   -0.023592   -0.010526    0.024577
    20    0.038277   -0.024285   -0.007649
    21   -0.008614   -0.002071    0.009227
    22    0.009692    0.009086    0.019998
    23    0.015206   -0.019911   -0.004273
    24    0.005811   -0.007145    0.011035
    25    0.007310    0.024884   -0.021375
    26    0.004075   -0.002638   -0.008804
    27    0.005766    0.001650   -0.014005
    28    0.006206    0.007725    0.009346
    29   -0.012210   -0.004936   -0.000676
    30   -0.002716    0.020547   -0.006465
----------------------------------------
   Tot    0.086264    0.057144   -0.062654
----------------------------------------
   Max    0.038277
   Res    0.012875    sqrt( Sum f_i^2 / 3N )
----------------------------------------
   Max    0.038277    constrained

Stress-tensor-Voigt (kbar):        0.50        0.10       -0.04        0.21       -0.07       -0.17
(Free)E + p*V (eV/cell)    -4656.2240
Target enthalpy (eV/cell)    -4655.7919

mulliken: Mulliken Atomic and Orbital Populations:

Species: C                   
Atom  Qatom  Qorb
               2s      2s      2py     2pz     2px     2py     2pz     2px     
               2Pdxy   2Pdyz   2Pdz2   2Pdxz   2Pdx2-y2
   6  3.967   0.550   0.441   0.442   0.641   0.500   0.453   0.279   0.396
              0.086   0.031   0.016   0.057   0.075
   7  3.984   0.572   0.428   0.451   0.663   0.494   0.419   0.306   0.419
              0.077   0.051   0.018   0.032   0.055
   8  3.991   0.677   0.382   0.492   0.527   0.384   0.405   0.320   0.444
              0.102   0.054   0.027   0.082   0.096
   9  3.961   0.538   0.460   0.466   0.557   0.534   0.484   0.278   0.364
              0.069   0.017   0.020   0.067   0.107
  10  4.024   0.672   0.378   0.447   0.571   0.460   0.415   0.314   0.434
              0.107   0.071   0.026   0.049   0.079
  20  4.098   0.725   0.337   0.382   0.479   0.354   0.439   0.344   0.543
              0.169   0.060   0.040   0.109   0.116
  21  4.039   0.681   0.380   0.426   0.489   0.404   0.473   0.323   0.443
              0.131   0.076   0.036   0.063   0.115
  22  3.956   0.560   0.439   0.504   0.694   0.527   0.400   0.263   0.379
              0.056   0.030   0.015   0.043   0.046
  23  3.768   0.156   0.659   0.506   0.529   0.511   0.455   0.439   0.402
              0.025   0.019   0.011   0.034   0.022
  24  3.888   0.495   0.477   0.471   0.637   0.436   0.484   0.278   0.396
              0.062   0.029   0.012   0.053   0.057

Species: H                   
Atom  Qatom  Qorb
               1s      1s      1Ppy    1Ppz    1Ppx    
  11  1.052   0.580   0.332   0.025   0.052   0.063
  12  1.096   0.694   0.313   0.034   0.040   0.014
  13  1.026   0.464   0.356   0.077   0.066   0.064
  14  1.067   0.577   0.334   0.063   0.059   0.034
  15  1.091   0.686   0.322   0.044   0.032   0.008
  25  1.042   0.449   0.357   0.094   0.062   0.080
  26  1.057   0.589   0.328   0.058   0.049   0.033
  27  1.096   0.705   0.303   0.035   0.036   0.016
  28  1.080   0.682   0.308   0.035   0.031   0.024
  29  1.069   0.660   0.316   0.038   0.032   0.023
  30  1.069   0.662   0.315   0.030   0.036   0.025

Species: N                   
Atom  Qatom  Qorb
               2s      2s      2py     2pz     2px     2py     2pz     2px     
               2Pdxy   2Pdyz   2Pdz2   2Pdxz   2Pdx2-y2
   1  4.763   0.660   0.481   0.700   1.198   0.471   0.390   0.211   0.545
              0.023   0.028   0.011   0.012   0.033
   2  5.080   1.015   0.349   0.958   1.025   1.113   0.220   0.128   0.169
              0.021   0.021   0.012   0.021   0.028
   3  4.763   0.618   0.489   0.603   1.288   0.592   0.481   0.183   0.457
              0.015   0.003   0.003   0.015   0.016
   4  5.035   1.001   0.331   0.857   1.142   0.887   0.304   0.123   0.297
              0.023   0.018   0.009   0.018   0.027
   5  5.049   0.975   0.361   0.675   1.033   1.317   0.354   0.140   0.094
              0.026   0.022   0.012   0.017   0.025
  18  4.772   0.663   0.475   0.647   1.196   0.567   0.449   0.216   0.462
              0.031   0.008   0.010   0.026   0.022
  19  4.766   0.702   0.459   0.696   1.180   0.614   0.399   0.201   0.438
              0.022   0.012   0.005   0.018   0.021

Species: O                   
Atom  Qatom  Qorb
               2s      2s      2py     2pz     2px     2py     2pz     2px     
               2Pdxy   2Pdyz   2Pdz2   2Pdxz   2Pdx2-y2
  16  6.158   1.434   0.209   1.667   1.447   1.151   0.012   0.037   0.161
              0.010   0.001   0.003   0.015   0.011
  17  6.193   1.468   0.188   1.135   1.434   1.724   0.188   0.034  -0.019
              0.009   0.013   0.004   0.003   0.011

mulliken: Qtot =       98.000

* Maximum dynamic memory allocated =   164 MB

outcoor: Relaxed atomic coordinates (Ang):                  
   -5.75085625    3.86652498    2.98130984   3       1  N
   -7.84964707    4.68289719    3.23869511   3       2  N
  -10.11320233    2.77133356    4.20916461   3       3  N
   -8.42501024    1.15380222    4.30086548   3       4  N
   -6.11006755    1.53364930    3.65636313   3       5  N
   -6.60069800    4.95807289    2.89364216   1       6  C
   -7.81307647    3.33530394    3.57158604   1       7  C
   -8.81620670    2.43140723    4.03173090   1       8  C
   -7.13289790    0.78564971    4.10397825   1       9  C
   -6.51584752    2.79922081    3.41917330   1      10  C
   -4.75421883    3.83362777    2.76853440   2      11  H
   -6.23659820    5.94058027    2.56929627   2      12  H
  -10.79703482    2.08207325    4.58517587   2      13  H
  -10.38815421    3.73089626    4.02019477   2      14  H
   -6.91846739   -0.26890399    4.35650771   2      15  H
   -8.38273532   -2.22126364    5.54368395   4      16  O
  -11.90545622    0.76361384    5.27544779   4      17  O
  -10.48350476   -2.88366755    6.25300775   3      18  N
  -10.16077743   -0.74047910    5.38307389   3      19  N
   -9.57860397   -1.95615290    5.70897011   1      20  C
  -11.49632909   -0.38216436    5.57202568   1      21  C
  -12.38020004   -1.41232568    6.13353577   1      22  C
  -13.82928453   -1.07507921    6.33796236   1      23  C
  -11.82193677   -2.62155341    6.45406126   1      24  C
   -9.49364422   -0.00230876    4.96359124   2      25  H
  -10.07287384   -3.78056895    6.51037630   2      26  H
  -12.40952562   -3.44286476    6.89398208   2      27  H
  -14.38114831   -1.91832311    6.79544841   2      28  H
  -13.93388614   -0.18149497    6.98610967   2      29  H
  -14.31273222   -0.81945611    5.37338291   2      30  H

coxmol: Writing XMOL coordinates into file ade_thy_gga.DZP.xyz                                             

siesta: Eigenvalues (eV):
  ik is    eps
   1  1 -26.57 -25.88 -25.80 -24.38 -24.21 -23.24 -22.75 -22.11 -21.34 -20.14
        -18.90 -17.64 -16.65 -16.45 -16.26 -16.10 -15.64 -14.36 -13.98 -13.88
        -13.52 -12.69 -12.63 -12.22 -11.62 -11.58 -11.44 -11.25 -10.77 -10.47
        -10.35 -10.29 -10.22  -9.93  -9.80  -9.57  -9.38  -8.76  -8.62  -7.54
         -7.21  -7.01  -6.76  -6.63  -6.60  -6.14  -5.92  -5.83  -5.43  -2.13
         -1.68  -1.13  -0.87  -0.26   0.45   0.75   1.47   1.60   1.67   2.10
          2.19   2.86   2.90   3.07   3.44   3.53   3.74   3.86   4.17   4.30
          4.46   4.76   4.79   5.23   6.07   6.15   6.40   6.51   6.62   6.75
          7.04   7.28   7.30   7.47   7.51   7.60   7.85   7.90   8.30   8.71
          8.97   9.12   9.23   9.30   9.34   9.45   9.55   9.72   9.78   9.91
         10.10  10.38  10.64  10.85  10.95  11.28  11.78  11.80  11.87  11.96
         12.51  12.80  12.98  13.33  13.34  13.71  14.05  14.43  14.53  14.62
         14.77  14.79  14.81  15.45  15.80  16.06  16.13  16.15  16.26  16.57
         16.72  17.00  17.13  17.17  17.43  17.86  17.87  17.92  18.06  18.15
         18.55  18.68  18.86  18.95  19.05  19.72  19.80  19.95  20.11  20.48
         20.81  21.02  21.11  21.51  21.80  21.84  22.33  22.71  23.32  23.38
         23.77  24.11  24.40  24.71  24.87  25.22  25.70  25.89  26.17  26.61
         26.83  27.22  27.40  27.68  28.50  28.76  29.71  29.81  30.02  30.79
         31.13  32.03  32.26  32.58  33.03  33.39  33.45  33.65  34.05  34.49
         34.82  34.96  35.39  35.95  36.29  36.78  36.89  37.41  37.48  37.93
         38.18  38.54  38.95  39.12  39.70  40.33  40.59  41.51  41.58  41.98
         42.08  42.43  42.77  43.02  43.46  43.52  43.98  44.70  45.06  45.25
         45.56  46.05  46.97  47.04  47.70  48.23  48.44  48.85  49.46  49.53
         49.82  50.36  50.56  50.96  51.50  52.46  53.27  53.54  54.11  54.55
         55.00  55.40  55.83  56.26  56.98  57.42  57.56  58.65  58.74  59.15
         59.66  60.66  60.85  61.05  62.14  62.81  62.90  63.80  63.85  64.33
         65.66  65.73  66.32  66.41  66.64  68.17  68.90  69.47  70.18  70.29
         70.80  71.71  71.92  72.60  73.02  74.51  74.87  75.13  75.77  76.96
         78.65  79.21  80.99  81.83  83.38  85.88  86.75  87.53  88.16  88.97
         90.23  92.43  92.62  96.01  99.11 101.39 102.54 104.23 105.03 106.41
        107.43 110.59
siesta: Fermi energy =      -3.081815 eV

siesta: Program's energy decomposition (eV):
siesta: Ebs     =     -1332.965029
siesta: Eions   =      6885.881546
siesta: Ena     =      1211.141735
siesta: Ekin    =      3178.347921
siesta: Enl     =      -621.849710
siesta: DEna    =      -102.898294
siesta: DUscf   =        11.141434
siesta: DUext   =         0.000000
siesta: Exc     =     -1445.793433
siesta: eta*DQ  =         0.000000
siesta: Emadel  =         0.000000
siesta: Emeta   =         0.000000
siesta: Emolmec =         0.000000
siesta: Ekinion =         0.000000
siesta: Eharris =     -4655.791904
siesta: Etot    =     -4655.791893
siesta: FreeEng =     -4655.791893

siesta: Final energy (eV):
siesta:  Band Struct. =   -1332.965029
siesta:       Kinetic =    3178.347921
siesta:       Hartree =   11195.024515
siesta:    Ext. field =       0.000000
siesta:   Exch.-corr. =   -1445.793433
siesta:  Ion-electron =  -25248.377125
siesta:       Ion-ion =    7665.006230
siesta:       Ekinion =       0.000000
siesta:         Total =   -4655.791893

siesta: Stress tensor (static) (eV/Ang**3):
siesta:     0.000311    0.000134   -0.000105
siesta:     0.000134    0.000063   -0.000041
siesta:    -0.000105   -0.000041   -0.000026

siesta: Cell volume =       3728.754292 Ang**3

siesta: Pressure (static):
siesta:                Solid            Molecule  Units
siesta:          -0.00000126         -0.00000147  Ry/Bohr**3
siesta:          -0.00011588         -0.00013495  eV/Ang**3
siesta:          -0.18566069         -0.21620946  kBar
(Free)E+ p_basis*V_orbitals  =       -4643.451302
(Free)Eharris+ p_basis*V_orbitals  =       -4643.451319

siesta: Electric dipole (a.u.)  =   -0.328037   -0.259005    0.263317
siesta: Electric dipole (Debye) =   -0.833787   -0.658324    0.669286

* Maximum dynamic memory allocated : Node    0 =   164 MB

* Maximum memory occured during poison                        

timer: CPU execution times:
timer:  Routine       Calls   Time/call    Tot.time        %
timer:  siesta            1    3084.681    3084.681   100.00
timer:  Setup             1       0.524       0.524     0.02
timer:  bands             1       0.000       0.000     0.00
timer:  writewave         1       0.004       0.004     0.00
timer:  KSV_init          1       0.000       0.000     0.00
timer:  IterMD           67      45.983    3080.877    99.88
timer:  hsparse          67       0.011       0.720     0.02
timer:  overlap          67       0.067       4.472     0.14
timer:  IterSCF         529       4.780    2528.490    81.97
timer:  kinefsm         134       0.058       7.708     0.25
timer:  nlefsm          134       0.449      60.140     1.95
timer:  DHSCF           597       4.900    2925.582    94.84
timer:  DHSCF1            1       0.096       0.096     0.00
timer:  DHSCF2           67       2.675     179.253     5.81
timer:  REORD          4912       0.005      22.382     0.73
timer:  POISON          664       0.297     197.232     6.39
timer:  DHSCF3          597       4.207    2511.483    81.42
timer:  rhoofd          597       1.688    1007.447    32.66
timer:  cellXC          597       1.216     726.181    23.54
timer:  vmat            596       0.890     530.715    17.20
timer:  MolMec          134       0.000       0.000     0.00
timer:  diagon          529       0.125      66.179     2.15
timer:  r-eigvec        529       0.119      62.776     2.04
timer:  r-buildHS       529       0.001       0.369     0.01
timer:  rdiag           529       0.118      62.403     2.02
timer:  rdiag1          529       0.005       2.820     0.09
timer:  rdiag2          529       0.015       7.921     0.26
timer:  rdiag3          529       0.080      42.129     1.37
timer:  rdiag4          529       0.018       9.449     0.31
timer:  r-buildD        529       0.006       3.296     0.11
timer:  DHSCF4           67       3.410     228.479     7.41
timer:  dfscf            67       3.052     204.469     6.63
timer:  overfsm          67       0.046       3.056     0.10
timer:  optical           1       0.000       0.000     0.00
  

elaps: ELAPSED times:
elaps:  Routine       Calls   Time/call    Tot.time        %
elaps:  siesta            1    3096.729    3096.729   100.00
elaps:  Setup             1       0.529       0.529     0.02
elaps:  bands             1       0.001       0.001     0.00
elaps:  writewave         1       0.000       0.000     0.00
elaps:  KSV_init          1       0.000       0.000     0.00
elaps:  IterMD           67      46.163    3092.906    99.88
elaps:  hsparse          67       0.011       0.731     0.02
elaps:  overlap          67       0.067       4.484     0.14
elaps:  IterSCF         529       4.798    2538.290    81.97
elaps:  kinefsm         134       0.058       7.743     0.25
elaps:  nlefsm          134       0.450      60.338     1.95
elaps:  DHSCF           597       4.919    2936.931    94.84
elaps:  DHSCF1            1       0.098       0.098     0.00
elaps:  DHSCF2           67       2.686     179.939     5.81
elaps:  REORD          4912       0.005      22.524     0.73
elaps:  POISON          664       0.298     198.150     6.40
elaps:  DHSCF3          597       4.223    2521.259    81.42
elaps:  rhoofd          597       1.694    1011.244    32.66
elaps:  cellXC          597       1.221     728.870    23.54
elaps:  vmat            596       0.894     532.839    17.21
elaps:  MolMec          134       0.000       0.000     0.00
elaps:  diagon          529       0.126      66.403     2.14
elaps:  r-eigvec        529       0.119      62.942     2.03
elaps:  r-buildHS       529       0.001       0.305     0.01
elaps:  rdiag           529       0.118      62.635     2.02
elaps:  rdiag1          529       0.005       2.769     0.09
elaps:  rdiag2          529       0.015       8.038     0.26
elaps:  rdiag3          529       0.080      42.278     1.37
elaps:  rdiag4          529       0.018       9.443     0.30
elaps:  r-buildD        529       0.006       3.293     0.11
elaps:  DHSCF4           67       3.423     229.314     7.41
elaps:  dfscf            67       3.063     205.204     6.63
elaps:  overfsm          67       0.046       3.085     0.10
elaps:  optical           1       0.000       0.000     0.00
  
>> End of run:  27-APR-2013  17:56:37

=====================================================================================
=   BAD TERMINATION OF ONE OF YOUR APPLICATION PROCESSES
=   EXIT CODE: 134
=   CLEANING UP REMAINING PROCESSES
=   YOU CAN IGNORE THE BELOW CLEANUP MESSAGES
=====================================================================================
APPLICATION TERMINATED WITH THE EXIT STRING: Aborted (signal 6)
