Siesta Version:                                        siesta-3.2
Architecture  : x86_64-unknown-linux-gnu--unknown
Compiler flags: f95 -g -O2
SERIAL version

* Running in serial mode
Siesta Version:                                        siesta-3.2
Architecture  : x86_64-unknown-linux-gnu--unknown
Compiler flags: f95 -g -O2
SERIAL version
>> Start of run:   9-MAY-2013  14:56:00

                           ***********************       
                           *  WELCOME TO SIESTA  *       
                           ***********************       

reinit: Reading from standard input
************************** Dump of input data file ****************************
# FDF for silicon
SystemName             silicon          # Descriptive name of the system
SystemLabel            si          # Short name for naming files
NumberOfAtoms 8
NumberOfSpecies 1
%block ChemicalSpeciesLabel
1 14 Si
%endblock ChemicalSpeciesLabel
LatticeConstant  5.50 Ang
##Basis set Definition##
PAO.BasisType          split        # Type of PAO basis set
PAO.EnergyShift        50 meV
PAO.BasisSize          DZP          # (DZP) Double-z + polarization
#%block LatticeVectors
#0.500 0.500 0.000
#0.500 0.000 0.500
#0.000 0.500 0.500
#%endblock LatticeVectors
AtomicCoordinatesFormat NotScaledCartesianAng
%block AtomicCoordinatesAndAtomicSpecies
	0.00000000	0.00000000	0.00000000  1 Si  1
	1.36000000	1.36000000	1.36000000  1 Si  2
	2.72000000	2.72000000	0.00000000  1 Si  3
	4.08000000	4.08000000	1.36000000  1 Si  4
	2.72000000	0.00000000	2.72000000  1 Si  5
	4.08000000	1.36000000	4.08000000  1 Si  6
	0.00000000	2.72000000	2.72000000  1 Si  7
	1.36000000	4.08000000	4.08000000  1 Si  8
%endblock AtomicCoordinatesAndAtomicSpecies
MeshCutoff 100.0 Ry # 100, 120, 180, 260
kgrid_cutoff 30.0 Bohr # 30, 35, 40, 45
DM.Mixingweight  0.3
DM.NumberPulay    3
DM.Tolerance      1.d-3
DM.UseSaveDM      true
ElectronicTemperature 25 meV
SolutionMethod    diagon
XC.functional      GGA	    # Generalized Gradient Approximation
XC.authors        PBE          # Perdew-Burke-Ernzerhof
SpinPolarized     false
MD.TypeOfRun           CG           # Type of dynamics:
MD.VariableCell        true
MD.NumCGsteps          100          # Number of CG steps for coordinate optimization
MD.MaxCGDispl          0.2 Bohr     # Maximum atomic displacement
                                    #   in one CG step (Bohr)
MD.MaxForceTol         0.04 eV/Ang  # Tolerance in the maximum
                                    #   atomic force (Ry/Bohr)
				
##Output Specification##
WriteMDhistory         true         # Trajectory information
WriteCoorStep          true
WriteCoorXmol          true
WriteMDXmol            true
WriteEigenvalues true
WriteKbands      true
WriteBands       true
WriteWaveFunctions true
WriteMullikenPoP   1
%block BandLines
1	1.000	1.000 1.000 L
25	0.000	0.000	0.000 \Gamma
30	2.000	0.000	0.000 X
10	2.000	0.500	0.500 U
35	0.000	0.000	0.000 \Gamma
%endblock BandLines
%block WaveFuncKPoints
0.0 0.0 0.0 from 1 to 50 # > 16 = 4/2*8 (Valenzelektronen/2, Atomzahl ...)
%endblock WaveFuncKpoints
************************** End of input data file *****************************

reinit: -----------------------------------------------------------------------
reinit: System Name: silicon
reinit: -----------------------------------------------------------------------
reinit: System Label: si                                                          
reinit: -----------------------------------------------------------------------

* Running in serial mode
>> Start of run:   9-MAY-2013  14:56:00

                           ***********************       
                           *  WELCOME TO SIESTA  *       
                           ***********************       

reinit: Reading from standard input
************************** Dump of input data file ****************************
************************** End of input data file *****************************

reinit: -----------------------------------------------------------------------
reinit: System Name: 
reinit: -----------------------------------------------------------------------
reinit: System Label: siesta                                                      
reinit: -----------------------------------------------------------------------

initatom: Reading input for the pseudopotentials and atomic orbitals ----------

initatom: Reading input for the pseudopotentials and atomic orbitals ----------
 Species number:            1  Label: Si Atomic number:          14
Ground state valence configuration:   3s02  3p02
Reading pseudopotential information in formatted form from Si.psf

Valence configuration for pseudopotential generation:
3s( 2.00) rc: 1.75
3p( 2.00) rc: 1.94
3d( 0.00) rc: 2.09
4f( 0.00) rc: 2.09
 Species number:            1  Label: Si Atomic number:          14
Ground state valence configuration:   3s02  3p02
Reading pseudopotential information in formatted form from Si.psf

Valence configuration for pseudopotential generation:
3s( 2.00) rc: 1.75
3p( 2.00) rc: 1.94
3d( 0.00) rc: 2.09
4f( 0.00) rc: 2.09
For Si, standard SIESTA heuristics set lmxkb to 3
 (one more than the basis l, including polarization orbitals).
Use PS.lmax or PS.KBprojectors blocks to override.

<basis_specs>
===============================================================================
Si                   Z=  14    Mass=  28.090        Charge= 0.17977+309
Lmxo=1 Lmxkb= 3    BasisType=split      Semic=F
L=0  Nsemic=0  Cnfigmx=3
          n=1  nzeta=2  polorb=0
            splnorm:   0.15000    
               vcte:    0.0000    
               rinn:    0.0000    
                rcs:    0.0000      0.0000    
            lambdas:    1.0000      1.0000    
L=1  Nsemic=0  Cnfigmx=3
          n=1  nzeta=2  polorb=1
            splnorm:   0.15000    
               vcte:    0.0000    
               rinn:    0.0000    
                rcs:    0.0000      0.0000    
            lambdas:    1.0000      1.0000    
-------------------------------------------------------------------------------
L=0  Nkbl=1  erefs: 0.17977+309
L=1  Nkbl=1  erefs: 0.17977+309
L=2  Nkbl=1  erefs: 0.17977+309
L=3  Nkbl=1  erefs: 0.17977+309
===============================================================================
</basis_specs>

atom: Called for Si                    (Z =  14)

read_vps: Pseudopotential generation method:
read_vps: ATM3      Troullier-Martins                       
Total valence charge:    4.00000

read_vps: Pseudopotential includes a core correction:
read_vps: Pseudo-core for xc-correction

xc_check: Exchange-correlation functional:
xc_check: GGA Perdew, Burke & Ernzerhof 1996
For Si, standard SIESTA heuristics set lmxkb to 3
 (one more than the basis l, including polarization orbitals).
Use PS.lmax or PS.KBprojectors blocks to override.

<basis_specs>
===============================================================================
Si                   Z=  14    Mass=  28.090        Charge= 0.17977+309
Lmxo=1 Lmxkb= 3    BasisType=split      Semic=F
L=0  Nsemic=0  Cnfigmx=3
          n=1  nzeta=2  polorb=0
            splnorm:   0.15000    
               vcte:    0.0000    
               rinn:    0.0000    
                rcs:    0.0000      0.0000    
            lambdas:    1.0000      1.0000    
L=1  Nsemic=0  Cnfigmx=3
          n=1  nzeta=2  polorb=1
            splnorm:   0.15000    
               vcte:    0.0000    
               rinn:    0.0000    
                rcs:    0.0000      0.0000    
            lambdas:    1.0000      1.0000    
-------------------------------------------------------------------------------
L=0  Nkbl=1  erefs: 0.17977+309
L=1  Nkbl=1  erefs: 0.17977+309
L=2  Nkbl=1  erefs: 0.17977+309
L=3  Nkbl=1  erefs: 0.17977+309
===============================================================================
</basis_specs>

atom: Called for Si                    (Z =  14)

read_vps: Pseudopotential generation method:
read_vps: ATM3      Troullier-Martins                       
Total valence charge:    4.00000

read_vps: Pseudopotential includes a core correction:
read_vps: Pseudo-core for xc-correction

xc_check: Exchange-correlation functional:
xc_check: GGA Perdew, Burke & Ernzerhof 1996
V l=0 = -2*Zval/r beyond r=  2.0104
V l=1 = -2*Zval/r beyond r=  2.0873
V l=2 = -2*Zval/r beyond r=  2.1670
V l=3 = -2*Zval/r beyond r=  2.1670
All V_l potentials equal beyond r=  2.0613
This should be close to max(r_c) in ps generation
All pots = -2*Zval/r beyond r=  2.1670

VLOCAL1: 99.0% of the norm of Vloc inside     10.216 Ry
VLOCAL1: 99.9% of the norm of Vloc inside     23.282 Ry
atom: Maximum radius for 4*pi*r*r*local-pseudopot. charge    2.45560
atom: Maximum radius for r*vlocal+2*Zval:    2.14012
V l=0 = -2*Zval/r beyond r=  2.0104
V l=1 = -2*Zval/r beyond r=  2.0873
V l=2 = -2*Zval/r beyond r=  2.1670
V l=3 = -2*Zval/r beyond r=  2.1670
All V_l potentials equal beyond r=  2.0613
This should be close to max(r_c) in ps generation
All pots = -2*Zval/r beyond r=  2.1670

VLOCAL1: 99.0% of the norm of Vloc inside     10.216 Ry
VLOCAL1: 99.9% of the norm of Vloc inside     23.282 Ry
GHOST: No ghost state for L =  0
atom: Maximum radius for 4*pi*r*r*local-pseudopot. charge    2.45560
atom: Maximum radius for r*vlocal+2*Zval:    2.14012
GHOST: No ghost state for L =  1
GHOST: No ghost state for L =  0
GHOST: No ghost state for L =  2
GHOST: No ghost state for L =  1
GHOST: No ghost state for L =  3

KBgen: Kleinman-Bylander projectors: 
   l= 0   rc=  2.306811   el= -0.791441   Ekb=  5.289775   kbcos=  0.291595
   l= 1   rc=  2.394965   el= -0.300632   Ekb=  1.944256   kbcos=  0.287657
   l= 2   rc=  2.549439   el=  0.001958   Ekb= -1.788485   kbcos= -0.056492
   l= 3   rc=  2.782581   el=  0.003046   Ekb= -0.472620   kbcos= -0.006203

KBgen: Total number of  Kleinman-Bylander projectors:   16
atom: -------------------------------------------------------------------------

atom: SANKEY-TYPE ORBITALS:
atom: Selected multiple-zeta basis: split     
GHOST: No ghost state for L =  2

SPLIT: Orbitals with angular momentum L= 0

SPLIT: Basis orbitals for state 3s

SPLIT: PAO cut-off radius determined from an
SPLIT: energy shift=  0.003675 Ry
GHOST: No ghost state for L =  3

KBgen: Kleinman-Bylander projectors: 
   l= 0   rc=  2.306811   el= -0.791441   Ekb=  5.289775   kbcos=  0.291595
   l= 1   rc=  2.394965   el= -0.300632   Ekb=  1.944256   kbcos=  0.287657
   l= 2   rc=  2.549439   el=  0.001958   Ekb= -1.788485   kbcos= -0.056492
   l= 3   rc=  2.782581   el=  0.003046   Ekb= -0.472620   kbcos= -0.006203

KBgen: Total number of  Kleinman-Bylander projectors:   16
atom: -------------------------------------------------------------------------

atom: SANKEY-TYPE ORBITALS:
atom: Selected multiple-zeta basis: split     

   izeta = 1
                 lambda =    1.000000
                     rc =    6.116033
                 energy =   -0.788343
                kinetic =    0.528041
    potential(screened) =   -1.316383
       potential(ionic) =   -3.704743

SPLIT: Orbitals with angular momentum L= 0

SPLIT: Basis orbitals for state 3s

SPLIT: PAO cut-off radius determined from an
SPLIT: energy shift=  0.003675 Ry

   izeta = 2
                 rmatch =    4.530823
              splitnorm =    0.150000
                 energy =   -0.692892
                kinetic =    0.848665
    potential(screened) =   -1.541557
       potential(ionic) =   -4.044985

   izeta = 1
                 lambda =    1.000000
                     rc =    6.116033
                 energy =   -0.788343
                kinetic =    0.528041
    potential(screened) =   -1.316383
       potential(ionic) =   -3.704743

SPLIT: Orbitals with angular momentum L= 1

SPLIT: Basis orbitals for state 3p

   izeta = 2
                 rmatch =    4.530823
              splitnorm =    0.150000
                 energy =   -0.692892
                kinetic =    0.848665
    potential(screened) =   -1.541557
       potential(ionic) =   -4.044985

SPLIT: PAO cut-off radius determined from an
SPLIT: energy shift=  0.003675 Ry

   izeta = 1
                 lambda =    1.000000
                     rc =    7.853192
                 energy =   -0.297152
                kinetic =    0.797948
    potential(screened) =   -1.095101
       potential(ionic) =   -3.275753

SPLIT: Orbitals with angular momentum L= 1

SPLIT: Basis orbitals for state 3p

SPLIT: PAO cut-off radius determined from an
SPLIT: energy shift=  0.003675 Ry

   izeta = 2
                 rmatch =    5.330310
              splitnorm =    0.150000
                 energy =   -0.228170
                kinetic =    1.148579
    potential(screened) =   -1.376749
       potential(ionic) =   -3.739005

   izeta = 1
                 lambda =    1.000000
                     rc =    7.853192
                 energy =   -0.297152
                kinetic =    0.797948
    potential(screened) =   -1.095101
       potential(ionic) =   -3.275753

   izeta = 2
                 rmatch =    5.330310
              splitnorm =    0.150000
                 energy =   -0.228170
                kinetic =    1.148579
    potential(screened) =   -1.376749
       potential(ionic) =   -3.739005

POLgen: Perturbative polarization orbital with L=  2

POLgen: Polarization orbital for state 3p

POLgen: Perturbative polarization orbital with L=  2

POLgen: Polarization orbital for state 3p

   izeta = 1
                     rc =    7.853192
                 energy =    0.340222
                kinetic =    1.096718
    potential(screened) =   -0.756496
       potential(ionic) =   -2.716423
atom: Total number of Sankey-type orbitals: 13

atm_pop: Valence configuration (for local Pseudopot. screening):
 3s( 2.00)                                                            
 3p( 2.00)                                                            
Vna: chval, zval:    4.00000   4.00000

Vna:  Cut-off radius for the neutral-atom potential:   7.853192

   izeta = 1
                     rc =    7.853192
                 energy =    0.340222
                kinetic =    1.096718
    potential(screened) =   -0.756496
       potential(ionic) =   -2.716423
comcore: Pseudo-core radius Rcore=  2.999314
atom: Total number of Sankey-type orbitals: 13

atm_pop: Valence configuration (for local Pseudopot. screening):
 3s( 2.00)                                                            
 3p( 2.00)                                                            
Vna: chval, zval:    4.00000   4.00000

Vna:  Cut-off radius for the neutral-atom potential:   7.853192

atom: _________________________________________________________________________

prinput: Basis input ----------------------------------------------------------

PAO.BasisType split     

%block ChemicalSpeciesLabel
    1   14 Si                      # Species index, atomic number, species label
%endblock ChemicalSpeciesLabel

%block PAO.Basis                 # Define Basis set
Si                    2                    # Species label, number of l-shells
 n=3   0   2                         # n, l, Nzeta 
   6.116      4.531   
   1.000      1.000   
 n=3   1   2 P   1                   # n, l, Nzeta, Polarization, NzetaPol
   7.853      5.330   
   1.000      1.000   
%endblock PAO.Basis

prinput: ----------------------------------------------------------------------

comcore: Pseudo-core radius Rcore=  2.999314

atom: _________________________________________________________________________

prinput: Basis input ----------------------------------------------------------

PAO.BasisType split     

%block ChemicalSpeciesLabel
    1   14 Si                      # Species index, atomic number, species label
%endblock ChemicalSpeciesLabel

%block PAO.Basis                 # Define Basis set
Si                    2                    # Species label, number of l-shells
 n=3   0   2                         # n, l, Nzeta 
   6.116      4.531   
   1.000      1.000   
 n=3   1   2 P   1                   # n, l, Nzeta, Polarization, NzetaPol
   7.853      5.330   
   1.000      1.000   
%endblock PAO.Basis

prinput: ----------------------------------------------------------------------

coor:   Atomic-coordinates input format  =     Cartesian coordinates
coor:                                          (in Angstroms)

siesta: Atomic coordinates (Bohr) and species
siesta:      0.00000   0.00000   0.00000  1        1
siesta:      2.57003   2.57003   2.57003  1        2
siesta:      5.14006   5.14006   0.00000  1        3
siesta:      7.71009   7.71009   2.57003  1        4
siesta:      5.14006   0.00000   5.14006  1        5
siesta:      7.71009   2.57003   7.71009  1        6
siesta:      0.00000   5.14006   5.14006  1        7
siesta:      2.57003   7.71009   7.71009  1        8

siesta: System type = bulk      
coor:   Atomic-coordinates input format  =     Cartesian coordinates
coor:                                          (in Angstroms)

initatomlists: Number of atoms, orbitals, and projectors:      8   104   128

siesta: ******************** Simulation parameters ****************************
siesta:
siesta: The following are some of the parameters of the simulation.
siesta: A complete list of the parameters used, including default values,
siesta: can be found in file out.fdf
siesta:
redata: Non-Collinear-spin run           =     F
redata: SpinPolarized (Up/Down) run      =     F
redata: Number of spin components        =     1
redata: Long output                      =     F
redata: Number of Atomic Species         =        1
redata: Charge density info will appear in .RHO file
redata: Write Mulliken Pop.              =     Atomic and Orbital charges

siesta: Atomic coordinates (Bohr) and species
siesta:      0.00000   0.00000   0.00000  1        1
siesta:      2.57003   2.57003   2.57003  1        2
siesta:      5.14006   5.14006   0.00000  1        3
siesta:      7.71009   7.71009   2.57003  1        4
siesta:      5.14006   0.00000   5.14006  1        5
siesta:      7.71009   2.57003   7.71009  1        6
siesta:      0.00000   5.14006   5.14006  1        7
siesta:      2.57003   7.71009   7.71009  1        8

siesta: System type = bulk      
redata: Mesh Cutoff                      =   100.0000  Ry
redata: Net charge of the system         =     0.0000 |e|
redata: Max. number of SCF Iter          =       50

initatomlists: Number of atoms, orbitals, and projectors:      8   104   128

siesta: ******************** Simulation parameters ****************************
siesta:
siesta: The following are some of the parameters of the simulation.
siesta: A complete list of the parameters used, including default values,
siesta: can be found in file out.fdf
siesta:
redata: Performing Pulay mixing using    =     3 iterations
redata: Non-Collinear-spin run           =     F
redata: SpinPolarized (Up/Down) run      =     F
redata: Number of spin components        =     1
redata: Long output                      =     F
redata: Mix DM in first SCF step ?       =     F
redata: Number of Atomic Species         =        1
redata: Charge density info will appear in .RHO file
redata: Write Pulay info on disk?        =     F
redata: Write Mulliken Pop.              =     Atomic and Orbital charges
redata: Discard 1st Pulay DM after  kick =     F
redata: New DM Mixing Weight             =     0.3000
redata: New DM Occupancy tolerance       = 0.000000000001
redata: Mesh Cutoff                      =   100.0000  Ry
redata: No kicks to SCF
redata: Net charge of the system         =     0.0000 |e|
redata: DM Mixing Weight for Kicks       =     0.5000
redata: DM Tolerance for SCF             =     0.001000
redata: Max. number of SCF Iter          =       50
redata: Require Energy convergence for SCF =     F
redata: Performing Pulay mixing using    =     3 iterations
redata: DM Energy tolerance for SCF      =     0.000100 eV
redata: Mix DM in first SCF step ?       =     F
redata: Require Harris convergence for SCF =     F
redata: Write Pulay info on disk?        =     F
redata: DM Harris energy tolerance for SCF =     0.000100 eV
redata: Discard 1st Pulay DM after  kick =     F
redata: New DM Mixing Weight             =     0.3000
redata: Using Saved Data (generic)   =     F
redata: Use continuation files for DM    =     T
redata: New DM Occupancy tolerance       = 0.000000000001
redata: Neglect nonoverlap interactions  =     F
redata: No kicks to SCF
redata: DM Mixing Weight for Kicks       =     0.5000
redata: Method of Calculation            =     Diagonalization
redata: Divide and Conquer               =     T
redata: DM Tolerance for SCF             =     0.001000
redata: Require Energy convergence for SCF =     F
redata: Electronic Temperature           =     0.0018  Ry
redata: DM Energy tolerance for SCF      =     0.000100 eV
redata: Require Harris convergence for SCF =     F
redata: Fix the spin of the system       =     F
redata: DM Harris energy tolerance for SCF =     0.000100 eV
redata: Using Saved Data (generic)   =     F
redata: Use continuation files for DM    =     T
redata: Neglect nonoverlap interactions  =     F
redata: Method of Calculation            =     Diagonalization
redata: Divide and Conquer               =     T
redata: Electronic Temperature           =     0.0018  Ry
redata: Fix the spin of the system       =     F
redata: Dynamics option                  =     CG coord. optimization
redata: Variable cell                    =     T
redata: Use continuation files for CG    =     F
redata: Max atomic displ per move        =     0.2000  Bohr
redata: Maximum number of CG moves       =      100
redata: Force tolerance                  =     0.0016  Ry/Bohr
redata: Stress tolerance                 =     1.0000  GPa
redata: Dynamics option                  =     CG coord. optimization
redata: Variable cell                    =     T
redata: Use continuation files for CG    =     F
redata: Max atomic displ per move        =     0.2000  Bohr
redata: Maximum number of CG moves       =      100
redata: Force tolerance                  =     0.0016  Ry/Bohr
redata: Stress tolerance                 =     1.0000  GPa
redata: ***********************************************************************
redata: ***********************************************************************
Total number of electrons:    32.000000
Total ionic charge:    32.000000
Total number of electrons:    32.000000
Total ionic charge:    32.000000
 Kpoints in:          108 . Kpoints trimmed:          108
 Kpoints in:          108 . Kpoints trimmed:          108

siesta: k-grid: Number of k-points =   108
siesta: k-grid: Cutoff (effective) =    16.500 Ang
siesta: k-grid: Supercell and displacements
siesta: k-grid:    0   6   0      0.500
siesta: k-grid:    0   0   6      0.500
siesta: k-grid:    6   0   0      0.500

siesta: k-grid: Number of k-points =   108
siesta: k-grid: Cutoff (effective) =    16.500 Ang
siesta: k-grid: Supercell and displacements
siesta: k-grid:    0   6   0      0.500
siesta: k-grid:    0   0   6      0.500
siesta: k-grid:    6   0   0      0.500
Naive supercell factors:     5    5    5
Naive supercell factors:     5    5    5

superc: Internal auxiliary supercell:     5 x     5 x     5  =     125
superc: Number of atoms, orbitals, and projectors:   1000  13000  16000

* Maximum dynamic memory allocated =     1 MB

siesta:                 ==============================
                            Begin CG move =      0
                        ==============================

outcoor: Atomic coordinates (Ang):                          
    0.00000000    0.00000000    0.00000000   1       1  Si
    1.36000000    1.36000000    1.36000000   1       2  Si
    2.72000000    2.72000000    0.00000000   1       3  Si
    4.08000000    4.08000000    1.36000000   1       4  Si
    2.72000000    0.00000000    2.72000000   1       5  Si
    4.08000000    1.36000000    4.08000000   1       6  Si
    0.00000000    2.72000000    2.72000000   1       7  Si
    1.36000000    4.08000000    4.08000000   1       8  Si

superc: Internal auxiliary supercell:     5 x     5 x     5  =     125
superc: Number of atoms, orbitals, and projectors:   1000  13000  16000

* Maximum dynamic memory allocated =     1 MB

siesta:                 ==============================
                            Begin CG move =      0
                        ==============================

outcoor: Atomic coordinates (Ang):                          
    0.00000000    0.00000000    0.00000000   1       1  Si
    1.36000000    1.36000000    1.36000000   1       2  Si
    2.72000000    2.72000000    0.00000000   1       3  Si
    4.08000000    4.08000000    1.36000000   1       4  Si
    2.72000000    0.00000000    2.72000000   1       5  Si
    4.08000000    1.36000000    4.08000000   1       6  Si
    0.00000000    2.72000000    2.72000000   1       7  Si
    1.36000000    4.08000000    4.08000000   1       8  Si

superc: Internal auxiliary supercell:     5 x     5 x     5  =     125
superc: Number of atoms, orbitals, and projectors:   1000  13000  16000

outcell: Unit cell vectors (Ang):
        5.500000    0.000000    0.000000
        0.000000    5.500000    0.000000
        0.000000    0.000000    5.500000

outcell: Cell vector modules (Ang)   :    5.500000    5.500000    5.500000
outcell: Cell angles (23,13,12) (deg):     90.0000     90.0000     90.0000
outcell: Cell volume (Ang**3)        :    166.3750

superc: Internal auxiliary supercell:     5 x     5 x     5  =     125
superc: Number of atoms, orbitals, and projectors:   1000  13000  16000

outcell: Unit cell vectors (Ang):
        5.500000    0.000000    0.000000
        0.000000    5.500000    0.000000
        0.000000    0.000000    5.500000

outcell: Cell vector modules (Ang)   :    5.500000    5.500000    5.500000
outcell: Cell angles (23,13,12) (deg):     90.0000     90.0000     90.0000
outcell: Cell volume (Ang**3)        :    166.3750
New_DM. Step:     1
Initializing Density Matrix...

iodm: Reading Density Matrix from files
New_DM. Step:     1
Initializing Density Matrix...

iodm: Reading Density Matrix from files

InitMesh: MESH =    36 x    36 x    36 =       46656
InitMesh: Mesh cutoff (required, used) =   100.000   118.408 Ry

InitMesh: MESH =    36 x    36 x    36 =       46656
InitMesh: Mesh cutoff (required, used) =   100.000   118.408 Ry

* Maximum dynamic memory allocated =    75 MB

* Maximum dynamic memory allocated =    75 MB

stepf: Fermi-Dirac step function

stepf: Fermi-Dirac step function

siesta: Program's energy decomposition (eV):
siesta: Ebs     =      -333.037631
siesta: Eions   =      1510.441798
siesta: Ena     =       470.684649
siesta: Ekin    =       320.616090
siesta: Enl     =       127.361196
siesta: DEna    =         6.297499
siesta: DUscf   =         1.531495
siesta: DUext   =         0.000000
siesta: Exc     =      -446.655671
siesta: eta*DQ  =         0.000000
siesta: Emadel  =         0.000000
siesta: Emeta   =         0.000000
siesta: Emolmec =         0.000000
siesta: Ekinion =         0.000000
siesta: Eharris =     -1030.606543
siesta: Etot    =     -1030.606540
siesta: FreeEng =     -1030.606540

siesta: iscf   Eharris(eV)      E_KS(eV)   FreeEng(eV)   dDmax  Ef(eV)
siesta:    1    -1030.6065    -1030.6065    -1030.6065  0.0002 -5.0215
timer: Routine,Calls,Time,% = IterSCF        1      19.009  97.04
elaps: Routine,Calls,Wall,% = IterSCF        1      19.084  97.04

siesta: Program's energy decomposition (eV):
siesta: Ebs     =      -331.346518
siesta: Eions   =      1510.441798
siesta: Ena     =       470.684649
siesta: Ekin    =       323.286683
siesta: Enl     =       127.958452
siesta: DEna    =         3.703271
siesta: DUscf   =         1.766172
siesta: DUext   =         0.000000
siesta: Exc     =      -447.521292
siesta: eta*DQ  =         0.000000
siesta: Emadel  =         0.000000
siesta: Emeta   =         0.000000
siesta: Emolmec =         0.000000
siesta: Ekinion =         0.000000
siesta: Eharris =     -1030.614877
siesta: Etot    =     -1030.563863
siesta: FreeEng =     -1030.563863

siesta: iscf   Eharris(eV)      E_KS(eV)   FreeEng(eV)   dDmax  Ef(eV)
siesta:    1    -1030.6149    -1030.5639    -1030.5639  0.0820 -4.9797
timer: Routine,Calls,Time,% = IterSCF        1      19.033  97.04
elaps: Routine,Calls,Wall,% = IterSCF        1      19.127  97.02
siesta:    2    -1030.6072    -1030.6046    -1030.6046  0.0175 -5.0285

siesta: E_KS(eV) =            -1030.6065

siesta: E_KS - E_eggbox =     -1030.6065

siesta: Atomic forces (eV/Ang):
----------------------------------------
   Tot   -0.002776   -0.002775   -0.002779
----------------------------------------
   Max    0.474194
   Res    0.325083    sqrt( Sum f_i^2 / 3N )
----------------------------------------
   Max    0.474194    constrained

Stress-tensor-Voigt (kbar):       -9.60       -9.60       -9.60       -5.55       -5.55       -5.55
(Free)E + p*V (eV/cell)    -1029.6096
Target enthalpy (eV/cell)    -1030.6065

siesta: Stress tensor (static) (eV/Ang**3):
        -0.005992   -0.003466   -0.003466
        -0.003466   -0.005992   -0.003466
        -0.003466   -0.003466   -0.005992

siesta: Pressure (static):          9.60041892  kBar

siesta: Stress tensor (total) (eV/Ang**3):
        -0.005992   -0.003466   -0.003466
        -0.003466   -0.005992   -0.003466
        -0.003466   -0.003466   -0.005992

siesta: Pressure (total):          9.60041892  kBar

mulliken: Mulliken Atomic and Orbital Populations:

Species: Si                  
Atom  Qatom  Qorb
               3s      3s      3py     3pz     3px     3py     3pz     3px     
               3Pdxy   3Pdyz   3Pdz2   3Pdxz   3Pdx2-y2
   1  4.002   0.669   0.557   0.253   0.253   0.253   0.512   0.512   0.512
              0.116   0.116   0.068   0.116   0.068
   2  4.007   0.599   0.592   0.223   0.223   0.223   0.542   0.542   0.542
              0.124   0.124   0.075   0.124   0.075
   3  4.000   0.621   0.581   0.236   0.220   0.236   0.529   0.540   0.529
              0.120   0.122   0.074   0.122   0.071
   4  3.997   0.643   0.570   0.235   0.252   0.235   0.525   0.514   0.525
              0.120   0.118   0.068   0.118   0.072
   5  4.000   0.621   0.581   0.220   0.236   0.236   0.540   0.529   0.529
              0.122   0.122   0.072   0.120   0.073
   6  3.997   0.643   0.570   0.252   0.235   0.235   0.514   0.525   0.525
              0.118   0.118   0.071   0.120   0.069
   7  4.000   0.621   0.581   0.236   0.236   0.220   0.529   0.529   0.540
              0.122   0.120   0.072   0.122   0.073
   8  3.997   0.643   0.570   0.235   0.235   0.252   0.525   0.525   0.514
              0.118   0.120   0.071   0.118   0.069

mulliken: Qtot =       32.000

cgvc: No target stress found, assuming hydrostatic MD.TargetPressure.

cgvc: Target stress (kBar)
cgvc:        -0.000       0.000       0.000
cgvc:         0.000      -0.000       0.000
cgvc:         0.000       0.000      -0.000

* Maximum dynamic memory allocated =    77 MB

siesta:                 ==============================
                            Begin CG move =      1
                        ==============================

outcoor: Atomic coordinates (Ang):                          
   -0.02956610   -0.02956613   -0.02956600   1       1  Si
    1.36422229    1.36422274    1.36422249   1       2  Si
    2.73424464    2.73424469   -0.02254858   1       3  Si
    4.12767970    4.12767959    1.37434533   1       4  Si
    2.73424558   -0.02254899    2.73424556   1       5  Si
    4.12767960    1.37434538    4.12767872   1       6  Si
   -0.02254881    2.73424559    2.73424581   1       7  Si
    1.37434518    4.12767936    4.12767882   1       8  Si
 Kpoints in:          108 . Kpoints trimmed:          108

siesta: k-grid: Number of k-points =   108
siesta: k-grid: Cutoff (effective) =    16.542 Ang
siesta: k-grid: Supercell and displacements
siesta: k-grid:    0   0   6      0.500
siesta: k-grid:    6   0   0      0.500
siesta: k-grid:    0   6   0      0.500
Naive supercell factors:     5    5    5

superc: Internal auxiliary supercell:     5 x     5 x     5  =     125
superc: Number of atoms, orbitals, and projectors:   1000  13000  16000

outcell: Unit cell vectors (Ang):
        5.514138    0.008177    0.008178
        0.008177    5.514138    0.008178
        0.008178    0.008178    5.514138

outcell: Cell vector modules (Ang)   :    5.514151    5.514151    5.514150
outcell: Cell angles (23,13,12) (deg):     89.8299     89.8299     89.8299
outcell: Cell volume (Ang**3)        :    167.6603
New_DM. Step:     2
Re-using DM from previous geometry...
Re-using DM without extrapolation (not allowed)
Density Matrix sparsity pattern changed.

InitMesh: MESH =    36 x    36 x    36 =       46656
InitMesh: Mesh cutoff (required, used) =   100.000   117.803 Ry
siesta:    3    -1030.6066    -1030.6012    -1030.6012  0.0028 -5.0215

siesta: iscf   Eharris(eV)      E_KS(eV)   FreeEng(eV)   dDmax  Ef(eV)
siesta:    1    -1030.6969    -1030.4202    -1030.4202  0.0153 -4.9799
siesta:    4    -1030.6065    -1030.6058    -1030.6058  0.0005 -5.0227
siesta:    2    -1030.8135    -1030.5827    -1030.5827  0.0446 -4.9855

siesta: E_KS(eV) =            -1030.6063

siesta: E_KS - E_eggbox =     -1030.6063

siesta: Atomic forces (eV/Ang):
----------------------------------------
   Tot   -0.002764   -0.002767   -0.002775
----------------------------------------
   Max    0.471369
   Res    0.322880    sqrt( Sum f_i^2 / 3N )
----------------------------------------
   Max    0.471369    constrained

Stress-tensor-Voigt (kbar):       -9.62       -9.62       -9.62       -5.56       -5.56       -5.56
(Free)E + p*V (eV/cell)    -1029.6077
Target enthalpy (eV/cell)    -1030.6063

siesta: Stress tensor (static) (eV/Ang**3):
        -0.006003   -0.003471   -0.003471
        -0.003471   -0.006003   -0.003471
        -0.003471   -0.003471   -0.006003

siesta: Pressure (static):          9.61718455  kBar

siesta: Stress tensor (total) (eV/Ang**3):
        -0.006003   -0.003471   -0.003471
        -0.003471   -0.006003   -0.003471
        -0.003471   -0.003471   -0.006003

siesta: Pressure (total):          9.61718455  kBar

mulliken: Mulliken Atomic and Orbital Populations:

Species: Si                  
Atom  Qatom  Qorb
               3s      3s      3py     3pz     3px     3py     3pz     3px     
               3Pdxy   3Pdyz   3Pdz2   3Pdxz   3Pdx2-y2
   1  4.002   0.669   0.557   0.253   0.253   0.253   0.512   0.512   0.512
              0.116   0.116   0.068   0.116   0.068
   2  4.008   0.599   0.592   0.223   0.223   0.223   0.542   0.542   0.542
              0.124   0.124   0.075   0.124   0.075
   3  4.000   0.621   0.581   0.236   0.220   0.236   0.529   0.540   0.529
              0.120   0.122   0.074   0.122   0.071
   4  3.997   0.643   0.570   0.235   0.252   0.235   0.525   0.514   0.525
              0.120   0.118   0.068   0.118   0.072
   5  4.000   0.621   0.581   0.220   0.236   0.236   0.540   0.529   0.529
              0.122   0.122   0.072   0.120   0.073
   6  3.997   0.643   0.570   0.252   0.235   0.235   0.514   0.525   0.525
              0.118   0.118   0.071   0.120   0.069
   7  4.000   0.621   0.581   0.236   0.236   0.220   0.529   0.529   0.540
              0.122   0.120   0.072   0.122   0.073
   8  3.997   0.643   0.570   0.235   0.235   0.252   0.525   0.525   0.514
              0.118   0.120   0.071   0.118   0.069

mulliken: Qtot =       32.000

cgvc: No target stress found, assuming hydrostatic MD.TargetPressure.

cgvc: Target stress (kBar)
cgvc:        -0.000       0.000       0.000
cgvc:         0.000      -0.000       0.000
cgvc:         0.000       0.000      -0.000

* Maximum dynamic memory allocated =    77 MB

siesta:                 ==============================
                            Begin CG move =      1
                        ==============================

outcoor: Atomic coordinates (Ang):                          
   -0.02955479   -0.02955472   -0.02955426   1       1  Si
    1.36438320    1.36438327    1.36438295   1       2  Si
    2.73422230    2.73422229   -0.02249539   1       3  Si
    4.12782035    4.12782026    1.37460273   1       4  Si
    2.73422316   -0.02249616    2.73422259   1       5  Si
    4.12781995    1.37460295    4.12781966   1       6  Si
   -0.02249607    2.73422303    2.73422284   1       7  Si
    1.37460295    4.12781990    4.12781968   1       8  Si
 Kpoints in:          108 . Kpoints trimmed:          108

siesta: k-grid: Number of k-points =   108
siesta: k-grid: Cutoff (effective) =    16.543 Ang
siesta: k-grid: Supercell and displacements
siesta: k-grid:    0   6   0      0.500
siesta: k-grid:    0   0   6      0.500
siesta: k-grid:    6   0   0      0.500
Naive supercell factors:     5    5    5

superc: Internal auxiliary supercell:     5 x     5 x     5  =     125
superc: Number of atoms, orbitals, and projectors:   1000  13000  16000

outcell: Unit cell vectors (Ang):
        5.514253    0.008242    0.008242
        0.008242    5.514253    0.008242
        0.008242    0.008242    5.514253

outcell: Cell vector modules (Ang)   :    5.514265    5.514265    5.514265
outcell: Cell angles (23,13,12) (deg):     89.8286     89.8286     89.8286
outcell: Cell volume (Ang**3)        :    167.6706
New_DM. Step:     2
Re-using DM from previous geometry...
Re-using DM without extrapolation (not allowed)
Density Matrix sparsity pattern changed.

InitMesh: MESH =    36 x    36 x    36 =       46656
InitMesh: Mesh cutoff (required, used) =   100.000   117.798 Ry
siesta:    3    -1030.6587    -1030.5477    -1030.5477  0.0108 -4.9742
siesta:    4    -1030.6586    -1030.6459    -1030.6459  0.0007 -4.9708

siesta: iscf   Eharris(eV)      E_KS(eV)   FreeEng(eV)   dDmax  Ef(eV)
siesta:    1    -1030.6964    -1030.4184    -1030.4184  0.0154 -4.9808
siesta:    2    -1030.8119    -1030.5831    -1030.5831  0.0443 -4.9859

siesta: E_KS(eV) =            -1030.6501

siesta: Atomic forces (eV/Ang):
----------------------------------------
   Tot   -0.002245   -0.002242   -0.002244
----------------------------------------
   Max    0.201821
   Res    0.162941    sqrt( Sum f_i^2 / 3N )
----------------------------------------
   Max    0.201821    constrained

Stress-tensor-Voigt (kbar):       -2.63       -2.63       -2.63        7.09        7.09        7.09
(Free)E + p*V (eV/cell)    -1030.3752
Target enthalpy (eV/cell)    -1030.6501

siesta: Stress tensor (static) (eV/Ang**3):
        -0.001639    0.004423    0.004423
         0.004423   -0.001639    0.004423
         0.004423    0.004423   -0.001639

siesta: Pressure (static):          2.62651747  kBar

siesta: Stress tensor (total) (eV/Ang**3):
        -0.001639    0.004423    0.004423
         0.004423   -0.001639    0.004423
         0.004423    0.004423   -0.001639

siesta: Pressure (total):          2.62651747  kBar

mulliken: Mulliken Atomic and Orbital Populations:

Species: Si                  
Atom  Qatom  Qorb
               3s      3s      3py     3pz     3px     3py     3pz     3px     
               3Pdxy   3Pdyz   3Pdz2   3Pdxz   3Pdx2-y2
   1  4.000   0.637   0.573   0.241   0.241   0.241   0.524   0.524   0.524
              0.119   0.119   0.070   0.119   0.070
   2  3.999   0.640   0.572   0.245   0.245   0.245   0.520   0.520   0.520
              0.118   0.118   0.070   0.118   0.070
   3  4.000   0.639   0.572   0.242   0.242   0.242   0.523   0.522   0.523
              0.119   0.119   0.070   0.119   0.070
   4  4.000   0.635   0.574   0.244   0.242   0.244   0.521   0.523   0.521
              0.119   0.119   0.071   0.119   0.070
   5  4.000   0.639   0.572   0.242   0.242   0.242   0.522   0.523   0.523
              0.119   0.119   0.070   0.119   0.070
   6  4.000   0.635   0.574   0.242   0.244   0.244   0.523   0.521   0.521
              0.119   0.119   0.070   0.119   0.070
   7  4.000   0.639   0.572   0.242   0.242   0.242   0.523   0.523   0.522
              0.119   0.119   0.070   0.119   0.070
   8  4.000   0.635   0.574   0.244   0.244   0.242   0.521   0.521   0.523
              0.119   0.119   0.070   0.119   0.070

mulliken: Qtot =       32.000

* Maximum dynamic memory allocated =    84 MB

siesta:                 ==============================
                            Begin CG move =      2
                        ==============================

outcoor: Atomic coordinates (Ang):                          
   -0.02195805   -0.02195807   -0.02195797   1       1  Si
    1.36314372    1.36314405    1.36314387   1       2  Si
    2.73060028    2.73060032   -0.01675686   1       3  Si
    4.11543867    4.11543859    1.37065325   1       4  Si
    2.73060098   -0.01675716    2.73060097   1       5  Si
    4.11543859    1.37065329    4.11543794   1       6  Si
   -0.01675703    2.73060099    2.73060115   1       7  Si
    1.37065314    4.11543841    4.11543801   1       8  Si
 Kpoints in:          108 . Kpoints trimmed:          108

siesta: k-grid: Number of k-points =   108
siesta: k-grid: Cutoff (effective) =    16.532 Ang
siesta: k-grid: Supercell and displacements
siesta: k-grid:    0   0   6      0.500
siesta: k-grid:    6   0   0      0.500
siesta: k-grid:    0   6   0      0.500
Naive supercell factors:     5    5    5

superc: Internal auxiliary supercell:     5 x     5 x     5  =     125
superc: Number of atoms, orbitals, and projectors:   1000  13000  16000

outcell: Unit cell vectors (Ang):
        5.510515    0.006082    0.006082
        0.006082    5.510515    0.006082
        0.006082    0.006082    5.510515

outcell: Cell vector modules (Ang)   :    5.510522    5.510522    5.510522
outcell: Cell angles (23,13,12) (deg):     89.8735     89.8735     89.8735
outcell: Cell volume (Ang**3)        :    167.3305
New_DM. Step:     3
Re-using DM from previous geometry...
Re-using DM without extrapolation (not allowed)

InitMesh: MESH =    36 x    36 x    36 =       46656
InitMesh: Mesh cutoff (required, used) =   100.000   117.957 Ry
siesta:    3    -1030.6585    -1030.5473    -1030.5473  0.0108 -4.9750

siesta: iscf   Eharris(eV)      E_KS(eV)   FreeEng(eV)   dDmax  Ef(eV)
siesta:    1    -1030.6711    -1030.7078    -1030.7078  0.0036 -5.0006
siesta:    4    -1030.6584    -1030.6457    -1030.6457  0.0007 -4.9716
siesta:    2    -1030.6786    -1030.6635    -1030.6635  0.0116 -5.0023

siesta: E_KS(eV) =            -1030.6499

siesta: Atomic forces (eV/Ang):
----------------------------------------
   Tot   -0.003068   -0.003058   -0.003066
----------------------------------------
   Max    0.202213
   Res    0.164195    sqrt( Sum f_i^2 / 3N )
----------------------------------------
   Max    0.202213    constrained

Stress-tensor-Voigt (kbar):       -2.59       -2.59       -2.58        7.14        7.14        7.14
(Free)E + p*V (eV/cell)    -1030.3793
Target enthalpy (eV/cell)    -1030.6499

siesta: Stress tensor (static) (eV/Ang**3):
        -0.001613    0.004456    0.004456
         0.004456   -0.001613    0.004456
         0.004456    0.004456   -0.001613

siesta: Pressure (static):          2.58499545  kBar

siesta: Stress tensor (total) (eV/Ang**3):
        -0.001613    0.004456    0.004456
         0.004456   -0.001613    0.004456
         0.004456    0.004456   -0.001613

siesta: Pressure (total):          2.58499545  kBar

mulliken: Mulliken Atomic and Orbital Populations:

Species: Si                  
Atom  Qatom  Qorb
               3s      3s      3py     3pz     3px     3py     3pz     3px     
               3Pdxy   3Pdyz   3Pdz2   3Pdxz   3Pdx2-y2
   1  4.000   0.637   0.573   0.241   0.241   0.241   0.523   0.523   0.523
              0.119   0.119   0.070   0.119   0.070
   2  3.999   0.640   0.572   0.245   0.245   0.245   0.520   0.520   0.520
              0.118   0.118   0.070   0.118   0.070
   3  4.000   0.639   0.572   0.242   0.242   0.242   0.523   0.522   0.523
              0.119   0.119   0.070   0.119   0.070
   4  4.000   0.635   0.574   0.244   0.242   0.244   0.521   0.522   0.521
              0.119   0.119   0.071   0.119   0.070
   5  4.000   0.639   0.572   0.242   0.242   0.242   0.522   0.523   0.523
              0.119   0.119   0.070   0.119   0.070
   6  4.000   0.635   0.574   0.242   0.244   0.244   0.522   0.521   0.521
              0.119   0.119   0.070   0.119   0.070
   7  4.000   0.639   0.572   0.242   0.242   0.242   0.523   0.523   0.522
              0.119   0.119   0.070   0.119   0.070
   8  4.000   0.635   0.574   0.244   0.244   0.242   0.521   0.521   0.522
              0.119   0.119   0.070   0.119   0.070

mulliken: Qtot =       32.000

* Maximum dynamic memory allocated =    84 MB

siesta:                 ==============================
                            Begin CG move =      2
                        ==============================

outcoor: Atomic coordinates (Ang):                          
   -0.02188478   -0.02188472   -0.02188438   1       1  Si
    1.36325377    1.36325382    1.36325359   1       2  Si
    2.73055283    2.73055282   -0.01666799   1       3  Si
    4.11543866    4.11543859    1.37081257   1       4  Si
    2.73055347   -0.01666856    2.73055304   1       5  Si
    4.11543836    1.37081273    4.11543815   1       6  Si
   -0.01666850    2.73055337    2.73055323   1       7  Si
    1.37081274    4.11543832    4.11543816   1       8  Si
 Kpoints in:          108 . Kpoints trimmed:          108

siesta: k-grid: Number of k-points =   108
siesta: k-grid: Cutoff (effective) =    16.532 Ang
siesta: k-grid: Supercell and displacements
siesta: k-grid:    0   6   0      0.500
siesta: k-grid:    0   0   6      0.500
siesta: k-grid:    6   0   0      0.500
Naive supercell factors:     5    5    5

superc: Internal auxiliary supercell:     5 x     5 x     5  =     125
superc: Number of atoms, orbitals, and projectors:   1000  13000  16000

outcell: Unit cell vectors (Ang):
        5.510569    0.006111    0.006112
        0.006111    5.510569    0.006112
        0.006112    0.006112    5.510569

outcell: Cell vector modules (Ang)   :    5.510576    5.510576    5.510576
outcell: Cell angles (23,13,12) (deg):     89.8728     89.8728     89.8728
outcell: Cell volume (Ang**3)        :    167.3354
New_DM. Step:     3
Re-using DM from previous geometry...
Re-using DM without extrapolation (not allowed)
Density Matrix sparsity pattern changed.

InitMesh: MESH =    36 x    36 x    36 =       46656
InitMesh: Mesh cutoff (required, used) =   100.000   117.955 Ry
siesta:    3    -1030.6685    -1030.6814    -1030.6814  0.0026 -5.0002

siesta: iscf   Eharris(eV)      E_KS(eV)   FreeEng(eV)   dDmax  Ef(eV)
siesta:    1    -1030.6710    -1030.7086    -1030.7086  0.0037 -4.9989
siesta:    4    -1030.6685    -1030.6672    -1030.6672  0.0002 -4.9998
siesta:    2    -1030.6786    -1030.6633    -1030.6633  0.0116 -5.0091

siesta: E_KS(eV) =            -1030.6675

siesta: Atomic forces (eV/Ang):
----------------------------------------
   Tot    0.000968    0.000966    0.000977
----------------------------------------
   Max    0.155123
   Res    0.101677    sqrt( Sum f_i^2 / 3N )
----------------------------------------
   Max    0.155123    constrained

Stress-tensor-Voigt (kbar):       -3.83       -3.83       -3.83        3.91        3.91        3.91
(Free)E + p*V (eV/cell)    -1030.2677
Target enthalpy (eV/cell)    -1030.6675

siesta: Stress tensor (static) (eV/Ang**3):
        -0.002389    0.002442    0.002442
         0.002442   -0.002389    0.002442
         0.002442    0.002442   -0.002389

siesta: Pressure (static):          3.82813742  kBar

siesta: Stress tensor (total) (eV/Ang**3):
        -0.002389    0.002442    0.002442
         0.002442   -0.002389    0.002442
         0.002442    0.002442   -0.002389

siesta: Pressure (total):          3.82813742  kBar

mulliken: Mulliken Atomic and Orbital Populations:

Species: Si                  
Atom  Qatom  Qorb
               3s      3s      3py     3pz     3px     3py     3pz     3px     
               3Pdxy   3Pdyz   3Pdz2   3Pdxz   3Pdx2-y2
   1  3.999   0.646   0.568   0.243   0.243   0.243   0.521   0.521   0.521
              0.118   0.118   0.070   0.118   0.070
   2  4.002   0.629   0.577   0.240   0.240   0.240   0.525   0.525   0.525
              0.120   0.120   0.071   0.120   0.071
   3  4.000   0.635   0.574   0.240   0.236   0.240   0.524   0.527   0.524
              0.119   0.120   0.071   0.120   0.070
   4  3.999   0.637   0.573   0.242   0.245   0.242   0.522   0.520   0.522
              0.119   0.119   0.070   0.119   0.070
   5  4.000   0.635   0.574   0.236   0.240   0.240   0.527   0.524   0.525
              0.120   0.120   0.070   0.119   0.071
   6  3.999   0.637   0.573   0.245   0.242   0.242   0.520   0.522   0.522
              0.119   0.119   0.070   0.119   0.070
   7  4.000   0.635   0.574   0.240   0.240   0.236   0.525   0.525   0.527
              0.120   0.119   0.070   0.120   0.071
   8  3.999   0.637   0.573   0.242   0.242   0.245   0.522   0.522   0.520
              0.119   0.119   0.070   0.119   0.070

mulliken: Qtot =       32.000

cgvc: Finished line minimization    1.  Mean atomic displacement =    0.0526

* Maximum dynamic memory allocated =    84 MB

siesta:                 ==============================
                            Begin CG move =      3
                        ==============================

outcoor: Atomic coordinates (Ang):                          
   -0.02713635   -0.02713602   -0.02713683   1       1  Si
    1.34264079    1.34264069    1.34264308   1       2  Si
    2.75393847    2.75393853   -0.02890998   1       3  Si
    4.12347312    4.12347275    1.33771061   1       4  Si
    2.75393724   -0.02890856    2.75393620   1       5  Si
    4.12347148    1.33771182    4.12347411   1       6  Si
   -0.02890886    2.75393759    2.75393670   1       7  Si
    1.33771235    4.12347188    4.12347386   1       8  Si
 Kpoints in:          108 . Kpoints trimmed:          108

siesta: k-grid: Number of k-points =   108
siesta: k-grid: Cutoff (effective) =    16.583 Ang
siesta: k-grid: Supercell and displacements
siesta: k-grid:    6   0   0      0.500
siesta: k-grid:    0   0   6      0.500
siesta: k-grid:    0   6   0      0.500
Naive supercell factors:     5    5    5

superc: Internal auxiliary supercell:     5 x     5 x     5  =     125
superc: Number of atoms, orbitals, and projectors:   1000  13000  16000

outcell: Unit cell vectors (Ang):
        5.527572   -0.003813   -0.003813
       -0.003813    5.527572   -0.003813
       -0.003813   -0.003813    5.527572

outcell: Cell vector modules (Ang)   :    5.527574    5.527574    5.527574
outcell: Cell angles (23,13,12) (deg):     90.0790     90.0790     90.0790
outcell: Cell volume (Ang**3)        :    168.8895
New_DM. Step:     4
Re-using DM from previous geometry...
Re-using DM without extrapolation (not allowed)
Density Matrix sparsity pattern changed.

InitMesh: MESH =    36 x    36 x    36 =       46656
InitMesh: Mesh cutoff (required, used) =   100.000   117.230 Ry
siesta:    3    -1030.6683    -1030.6815    -1030.6815  0.0026 -4.9985

siesta: iscf   Eharris(eV)      E_KS(eV)   FreeEng(eV)   dDmax  Ef(eV)
siesta:    1    -1030.6679    -1030.4111    -1030.4111  0.0113 -4.9787
siesta:    4    -1030.6684    -1030.6671    -1030.6671  0.0002 -5.0066
siesta:    2    -1030.7404    -1030.5980    -1030.5980  0.0385 -4.9938

siesta: E_KS(eV) =            -1030.6674

siesta: Atomic forces (eV/Ang):
----------------------------------------
   Tot    0.001116    0.001114    0.001127
----------------------------------------
   Max    0.157096
   Res    0.102767    sqrt( Sum f_i^2 / 3N )
----------------------------------------
   Max    0.157096    constrained

Stress-tensor-Voigt (kbar):       -3.80       -3.80       -3.80        3.94        3.94        3.94
(Free)E + p*V (eV/cell)    -1030.2708
Target enthalpy (eV/cell)    -1030.6674

siesta: Stress tensor (static) (eV/Ang**3):
        -0.002370    0.002459    0.002459
         0.002459   -0.002370    0.002459
         0.002459    0.002459   -0.002370

siesta: Pressure (static):          3.79758032  kBar

siesta: Stress tensor (total) (eV/Ang**3):
        -0.002370    0.002459    0.002459
         0.002459   -0.002370    0.002459
         0.002459    0.002459   -0.002370

siesta: Pressure (total):          3.79758032  kBar

mulliken: Mulliken Atomic and Orbital Populations:

Species: Si                  
Atom  Qatom  Qorb
               3s      3s      3py     3pz     3px     3py     3pz     3px     
               3Pdxy   3Pdyz   3Pdz2   3Pdxz   3Pdx2-y2
   1  3.999   0.646   0.568   0.243   0.243   0.243   0.521   0.521   0.521
              0.118   0.118   0.070   0.118   0.070
   2  4.002   0.629   0.577   0.240   0.240   0.240   0.525   0.525   0.525
              0.120   0.120   0.071   0.120   0.071
   3  4.000   0.635   0.574   0.240   0.236   0.240   0.524   0.527   0.524
              0.119   0.120   0.071   0.120   0.070
   4  3.999   0.637   0.573   0.242   0.245   0.242   0.522   0.520   0.522
              0.119   0.119   0.070   0.119   0.070
   5  4.000   0.635   0.574   0.236   0.240   0.240   0.527   0.524   0.524
              0.120   0.120   0.070   0.119   0.071
   6  3.999   0.637   0.573   0.245   0.242   0.242   0.520   0.522   0.522
              0.119   0.119   0.070   0.119   0.070
   7  4.000   0.635   0.574   0.240   0.240   0.236   0.524   0.524   0.527
              0.120   0.119   0.070   0.120   0.071
   8  3.999   0.637   0.573   0.242   0.242   0.245   0.522   0.522   0.520
              0.119   0.119   0.070   0.119   0.070

mulliken: Qtot =       32.000

cgvc: Finished line minimization    1.  Mean atomic displacement =    0.0524

* Maximum dynamic memory allocated =    84 MB

siesta:                 ==============================
                            Begin CG move =      3
                        ==============================

outcoor: Atomic coordinates (Ang):                          
   -0.02724779   -0.02724711   -0.02724779   1       1  Si
    1.34281012    1.34281025    1.34281172   1       2  Si
    2.75377658    2.75377665   -0.02889381   1       3  Si
    4.12355771    4.12355733    1.33804776   1       4  Si
    2.75377556   -0.02889327    2.75377489   1       5  Si
    4.12355622    1.33804903    4.12355848   1       6  Si
   -0.02889339    2.75377538    2.75377511   1       7  Si
    1.33804978    4.12355633    4.12355820   1       8  Si
 Kpoints in:          108 . Kpoints trimmed:          108

siesta: k-grid: Number of k-points =   108
siesta: k-grid: Cutoff (effective) =    16.582 Ang
siesta: k-grid: Supercell and displacements
siesta: k-grid:    6   0   0      0.500
siesta: k-grid:    0   6   0      0.500
siesta: k-grid:    0   0   6      0.500
Naive supercell factors:     5    5    5

superc: Internal auxiliary supercell:     5 x     5 x     5  =     125
superc: Number of atoms, orbitals, and projectors:   1000  13000  16000

outcell: Unit cell vectors (Ang):
        5.527381   -0.003677   -0.003678
       -0.003677    5.527381   -0.003678
       -0.003678   -0.003678    5.527381

outcell: Cell vector modules (Ang)   :    5.527384    5.527384    5.527384
outcell: Cell angles (23,13,12) (deg):     90.0762     90.0762     90.0762
outcell: Cell volume (Ang**3)        :    168.8720
New_DM. Step:     4
Re-using DM from previous geometry...
Re-using DM without extrapolation (not allowed)
Density Matrix sparsity pattern changed.

InitMesh: MESH =    36 x    36 x    36 =       46656
InitMesh: Mesh cutoff (required, used) =   100.000   117.238 Ry
siesta:    3    -1030.6447    -1030.5424    -1030.5424  0.0091 -4.9846

siesta: iscf   Eharris(eV)      E_KS(eV)   FreeEng(eV)   dDmax  Ef(eV)
siesta:    1    -1030.6688    -1030.4148    -1030.4148  0.0113 -4.9762
siesta:    4    -1030.6447    -1030.6376    -1030.6376  0.0005 -4.9858
siesta:    2    -1030.7419    -1030.5983    -1030.5983  0.0386 -4.9934

siesta: E_KS(eV) =            -1030.6400

siesta: Atomic forces (eV/Ang):
----------------------------------------
   Tot    0.001800    0.001811    0.001822
----------------------------------------
   Max    0.330219
   Res    0.216142    sqrt( Sum f_i^2 / 3N )
----------------------------------------
   Max    0.330219    constrained

Stress-tensor-Voigt (kbar):        3.31        3.31        3.31       -5.19       -5.19       -5.19
(Free)E + p*V (eV/cell)    -1030.9892
Target enthalpy (eV/cell)    -1030.6400

siesta: Stress tensor (static) (eV/Ang**3):
         0.002068   -0.003237   -0.003238
        -0.003237    0.002068   -0.003238
        -0.003238   -0.003238    0.002068

siesta: Pressure (static):         -3.31269121  kBar

siesta: Stress tensor (total) (eV/Ang**3):
         0.002068   -0.003237   -0.003238
        -0.003237    0.002068   -0.003238
        -0.003238   -0.003238    0.002068

siesta: Pressure (total):         -3.31269121  kBar

mulliken: Mulliken Atomic and Orbital Populations:

Species: Si                  
Atom  Qatom  Qorb
               3s      3s      3py     3pz     3px     3py     3pz     3px     
               3Pdxy   3Pdyz   3Pdz2   3Pdxz   3Pdx2-y2
   1  4.002   0.623   0.580   0.236   0.236   0.236   0.529   0.529   0.529
              0.120   0.120   0.072   0.120   0.072
   2  3.998   0.668   0.557   0.257   0.257   0.257   0.507   0.507   0.507
              0.115   0.115   0.067   0.115   0.067
   3  4.000   0.654   0.564   0.247   0.257   0.247   0.516   0.509   0.516
              0.118   0.117   0.068   0.117   0.070
   4  4.000   0.637   0.573   0.250   0.239   0.250   0.516   0.524   0.516
              0.118   0.119   0.071   0.119   0.069
   5  4.000   0.654   0.564   0.257   0.247   0.247   0.509   0.516   0.516
              0.117   0.117   0.069   0.118   0.068
   6  4.000   0.637   0.573   0.239   0.250   0.250   0.524   0.516   0.516
              0.119   0.119   0.070   0.118   0.071
   7  4.000   0.654   0.564   0.247   0.247   0.257   0.516   0.516   0.509
              0.117   0.118   0.069   0.117   0.068
   8  4.000   0.637   0.573   0.250   0.250   0.239   0.516   0.516   0.524
              0.119   0.118   0.070   0.119   0.071

mulliken: Qtot =       32.000

* Maximum dynamic memory allocated =    84 MB

siesta:                 ==============================
                            Begin CG move =      4
                        ==============================

outcoor: Atomic coordinates (Ang):                          
   -0.02360744   -0.02360735   -0.02360755   1       1  Si
    1.35661319    1.35661339    1.35661402   1       2  Si
    2.73802503    2.73802508   -0.02060970   1       3  Si
    4.11798680    4.11798663    1.36018286   1       4  Si
    2.73802511   -0.02060946    2.73802478   1       5  Si
    4.11798623    1.36018327    4.11798662   1       6  Si
   -0.02060946    2.73802523    2.73802506   1       7  Si
    1.36018334    4.11798623    4.11798659   1       8  Si
 Kpoints in:          108 . Kpoints trimmed:          108

siesta: k-grid: Number of k-points =   108
siesta: k-grid: Cutoff (effective) =    16.548 Ang
siesta: k-grid: Supercell and displacements
siesta: k-grid:    0   0   6      0.500
siesta: k-grid:    6   0   0      0.500
siesta: k-grid:    0   6   0      0.500
Naive supercell factors:     5    5    5

superc: Internal auxiliary supercell:     5 x     5 x     5  =     125
superc: Number of atoms, orbitals, and projectors:   1000  13000  16000

outcell: Unit cell vectors (Ang):
        5.515946    0.002931    0.002931
        0.002931    5.515946    0.002931
        0.002931    0.002931    5.515946

outcell: Cell vector modules (Ang)   :    5.515948    5.515948    5.515948
outcell: Cell angles (23,13,12) (deg):     89.9391     89.9391     89.9391
outcell: Cell volume (Ang**3)        :    167.8262
New_DM. Step:     5
Re-using DM from previous geometry...
Re-using DM without extrapolation (not allowed)
Density Matrix sparsity pattern changed.

InitMesh: MESH =    36 x    36 x    36 =       46656
InitMesh: Mesh cutoff (required, used) =   100.000   117.725 Ry
siesta:    3    -1030.6454    -1030.5438    -1030.5438  0.0092 -4.9863

siesta: iscf   Eharris(eV)      E_KS(eV)   FreeEng(eV)   dDmax  Ef(eV)
siesta:    1    -1030.6850    -1030.8160    -1030.8160  0.0088 -5.0071
siesta:    4    -1030.6454    -1030.6384    -1030.6384  0.0005 -4.9831
siesta:    2    -1030.7169    -1030.6539    -1030.6539  0.0242 -5.0076

siesta: E_KS(eV) =            -1030.6407

siesta: Atomic forces (eV/Ang):
----------------------------------------
   Tot    0.001823    0.001835    0.001853
----------------------------------------
   Max    0.326014
   Res    0.213261    sqrt( Sum f_i^2 / 3N )
----------------------------------------
   Max    0.326014    constrained

Stress-tensor-Voigt (kbar):        3.21        3.21        3.21       -5.05       -5.05       -5.05
(Free)E + p*V (eV/cell)    -1030.9792
Target enthalpy (eV/cell)    -1030.6407

siesta: Stress tensor (static) (eV/Ang**3):
         0.002005   -0.003152   -0.003153
        -0.003152    0.002005   -0.003153
        -0.003153   -0.003153    0.002005

siesta: Pressure (static):         -3.21178471  kBar

siesta: Stress tensor (total) (eV/Ang**3):
         0.002005   -0.003152   -0.003153
        -0.003152    0.002005   -0.003153
        -0.003153   -0.003153    0.002005

siesta: Pressure (total):         -3.21178471  kBar

mulliken: Mulliken Atomic and Orbital Populations:

Species: Si                  
Atom  Qatom  Qorb
               3s      3s      3py     3pz     3px     3py     3pz     3px     
               3Pdxy   3Pdyz   3Pdz2   3Pdxz   3Pdx2-y2
   1  4.002   0.623   0.580   0.236   0.236   0.236   0.529   0.529   0.529
              0.120   0.120   0.072   0.120   0.072
   2  3.998   0.668   0.557   0.256   0.256   0.256   0.507   0.507   0.507
              0.115   0.115   0.067   0.115   0.067
   3  4.000   0.654   0.564   0.247   0.257   0.247   0.517   0.509   0.517
              0.118   0.117   0.068   0.117   0.070
   4  4.000   0.637   0.573   0.250   0.239   0.250   0.516   0.524   0.516
              0.118   0.119   0.071   0.119   0.069
   5  4.000   0.654   0.564   0.257   0.247   0.247   0.509   0.517   0.517
              0.117   0.117   0.069   0.118   0.068
   6  4.000   0.637   0.573   0.239   0.250   0.250   0.524   0.516   0.516
              0.119   0.119   0.070   0.118   0.071
   7  4.000   0.654   0.564   0.247   0.247   0.257   0.517   0.517   0.509
              0.117   0.118   0.069   0.117   0.068
   8  4.000   0.637   0.573   0.250   0.250   0.239   0.516   0.516   0.524
              0.119   0.118   0.070   0.119   0.071

mulliken: Qtot =       32.000

* Maximum dynamic memory allocated =    84 MB

siesta:                 ==============================
                            Begin CG move =      4
                        ==============================

outcoor: Atomic coordinates (Ang):                          
   -0.02361871   -0.02361845   -0.02361844   1       1  Si
    1.35664415    1.35664423    1.35664454   1       2  Si
    2.73805240    2.73805241   -0.02060251   1       3  Si
    4.11805265    4.11805248    1.36024182   1       4  Si
    2.73805250   -0.02060273    2.73805200   1       5  Si
    4.11805197    1.36024234    4.11805255   1       6  Si
   -0.02060272    2.73805238    2.73805220   1       7  Si
    1.36024258    4.11805198    4.11805247   1       8  Si
 Kpoints in:          108 . Kpoints trimmed:          108

siesta: k-grid: Number of k-points =   108
siesta: k-grid: Cutoff (effective) =    16.548 Ang
siesta: k-grid: Supercell and displacements
siesta: k-grid:    6   0   0      0.500
siesta: k-grid:    0   6   0      0.500
siesta: k-grid:    0   0   6      0.500
Naive supercell factors:     5    5    5

superc: Internal auxiliary supercell:     5 x     5 x     5  =     125
superc: Number of atoms, orbitals, and projectors:   1000  13000  16000

outcell: Unit cell vectors (Ang):
        5.516003    0.002948    0.002948
        0.002948    5.516003    0.002948
        0.002948    0.002948    5.516003

outcell: Cell vector modules (Ang)   :    5.516004    5.516004    5.516004
outcell: Cell angles (23,13,12) (deg):     89.9387     89.9387     89.9387
outcell: Cell volume (Ang**3)        :    167.8313
New_DM. Step:     5
Re-using DM from previous geometry...
Re-using DM without extrapolation (not allowed)
Density Matrix sparsity pattern changed.

InitMesh: MESH =    36 x    36 x    36 =       46656
InitMesh: Mesh cutoff (required, used) =   100.000   117.722 Ry
siesta:    3    -1030.6746    -1030.7227    -1030.7227  0.0061 -5.0039

siesta: iscf   Eharris(eV)      E_KS(eV)   FreeEng(eV)   dDmax  Ef(eV)
siesta:    1    -1030.6849    -1030.8128    -1030.8128  0.0087 -5.0055
siesta:    4    -1030.6746    -1030.6703    -1030.6703  0.0004 -5.0030
siesta:    2    -1030.7167    -1030.6540    -1030.6540  0.0241 -5.0061

siesta: E_KS(eV) =            -1030.6713

siesta: Atomic forces (eV/Ang):
----------------------------------------
   Tot    0.003549    0.003557    0.003570
----------------------------------------
   Max    0.022049
   Res    0.017236    sqrt( Sum f_i^2 / 3N )
----------------------------------------
   Max    0.022049    constrained

Stress-tensor-Voigt (kbar):       -1.14       -1.14       -1.14        1.11        1.11        1.11
(Free)E + p*V (eV/cell)    -1030.5520
Target enthalpy (eV/cell)    -1030.6713

siesta: Stress tensor (static) (eV/Ang**3):
        -0.000711    0.000694    0.000694
         0.000694   -0.000711    0.000694
         0.000694    0.000694   -0.000711

siesta: Pressure (static):          1.13928364  kBar

siesta: Stress tensor (total) (eV/Ang**3):
        -0.000711    0.000694    0.000694
         0.000694   -0.000711    0.000694
         0.000694    0.000694   -0.000711

siesta: Pressure (total):          1.13928364  kBar

mulliken: Mulliken Atomic and Orbital Populations:

Species: Si                  
Atom  Qatom  Qorb
               3s      3s      3py     3pz     3px     3py     3pz     3px     
               3Pdxy   3Pdyz   3Pdz2   3Pdxz   3Pdx2-y2
   1  4.000   0.639   0.572   0.241   0.241   0.241   0.523   0.523   0.523
              0.119   0.119   0.070   0.119   0.070
   2  4.000   0.641   0.571   0.245   0.245   0.245   0.519   0.519   0.519
              0.118   0.118   0.070   0.118   0.070
   3  4.000   0.641   0.571   0.242   0.243   0.242   0.522   0.522   0.522
              0.119   0.119   0.070   0.119   0.070
   4  4.000   0.637   0.573   0.245   0.243   0.245   0.520   0.521   0.520
              0.119   0.119   0.070   0.119   0.070
   5  4.000   0.641   0.571   0.243   0.242   0.242   0.522   0.522   0.522
              0.119   0.119   0.070   0.119   0.070
   6  4.000   0.637   0.573   0.243   0.245   0.245   0.521   0.520   0.520
              0.119   0.119   0.070   0.119   0.070
   7  4.000   0.641   0.571   0.242   0.242   0.243   0.522   0.522   0.522
              0.119   0.119   0.070   0.119   0.070
   8  4.000   0.637   0.573   0.245   0.245   0.243   0.520   0.520   0.521
              0.119   0.119   0.070   0.119   0.070

mulliken: Qtot =       32.000

* Maximum dynamic memory allocated =    84 MB

outcoor: Relaxed atomic coordinates (Ang):                  
   -0.02360744   -0.02360735   -0.02360755   1       1  Si
    1.35661319    1.35661339    1.35661402   1       2  Si
    2.73802503    2.73802508   -0.02060970   1       3  Si
    4.11798680    4.11798663    1.36018286   1       4  Si
    2.73802511   -0.02060946    2.73802478   1       5  Si
    4.11798623    1.36018327    4.11798662   1       6  Si
   -0.02060946    2.73802523    2.73802506   1       7  Si
    1.36018334    4.11798623    4.11798659   1       8  Si

outcell: Unit cell vectors (Ang):
        5.515946    0.002931    0.002931
        0.002931    5.515946    0.002931
        0.002931    0.002931    5.515946

outcell: Cell vector modules (Ang)   :    5.515948    5.515948    5.515948
outcell: Cell angles (23,13,12) (deg):     89.9391     89.9391     89.9391
outcell: Cell volume (Ang**3)        :    167.8262

coxmol: Writing XMOL coordinates into file si.xyz                                                          
Writing WFSX for selected k-points in si.selected.WFSX

writewave: Wave Functions Coefficients

     Number of k-points =        1
        Number of Spins =        1
   Number of basis orbs =      104


                                                                  ******
            k-point =        1    0.000000  0.000000  0.000000
     Spin component =        1
 Num. wavefunctions =       50
Use readwfsx utility to print wavefunction coefficients from WFSX file
Computing bands...

siesta: Band k vectors (Bohr**-1):
  ik           k
   1    0.302265    0.302265    0.302265
   2    0.290175    0.290175    0.290175
   3    0.278084    0.278084    0.278084
   4    0.265993    0.265993    0.265993
   5    0.253903    0.253903    0.253903
   6    0.241812    0.241812    0.241812
   7    0.229722    0.229722    0.229722
   8    0.217631    0.217631    0.217631
   9    0.205540    0.205540    0.205540
  10    0.193450    0.193450    0.193450
  11    0.181359    0.181359    0.181359
  12    0.169269    0.169269    0.169269
  13    0.157178    0.157178    0.157178
  14    0.145087    0.145087    0.145087
  15    0.132997    0.132997    0.132997
  16    0.120906    0.120906    0.120906
  17    0.108815    0.108815    0.108815
  18    0.096725    0.096725    0.096725
  19    0.084634    0.084634    0.084634
  20    0.072544    0.072544    0.072544
  21    0.060453    0.060453    0.060453
  22    0.048362    0.048362    0.048362
  23    0.036272    0.036272    0.036272
  24    0.024181    0.024181    0.024181
  25    0.012091    0.012091    0.012091
  26    0.000000    0.000000    0.000000
  27    0.020151    0.000000    0.000000
  28    0.040302    0.000000    0.000000
  29    0.060453    0.000000    0.000000
  30    0.080604    0.000000    0.000000
  31    0.100755    0.000000    0.000000
  32    0.120906    0.000000    0.000000
  33    0.141057    0.000000    0.000000
  34    0.161208    0.000000    0.000000
  35    0.181359    0.000000    0.000000
  36    0.201510    0.000000    0.000000
  37    0.221661    0.000000    0.000000
  38    0.241812    0.000000    0.000000
  39    0.261963    0.000000    0.000000
  40    0.282114    0.000000    0.000000
  41    0.302265    0.000000    0.000000
  42    0.322416    0.000000    0.000000
  43    0.342567    0.000000    0.000000
  44    0.362718    0.000000    0.000000
  45    0.382869    0.000000    0.000000
  46    0.403020    0.000000    0.000000
  47    0.423171    0.000000    0.000000
  48    0.443322    0.000000    0.000000
  49    0.463473    0.000000    0.000000
  50    0.483624    0.000000    0.000000
  51    0.503775    0.000000    0.000000
  52    0.523926    0.000000    0.000000
  53    0.544077    0.000000    0.000000
  54    0.564228    0.000000    0.000000
  55    0.584379    0.000000    0.000000
  56    0.604530    0.000000    0.000000
  57    0.604530    0.015113    0.015113
  58    0.604530    0.030227    0.030227
  59    0.604530    0.045340    0.045340
  60    0.604530    0.060453    0.060453
  61    0.604530    0.075566    0.075566
  62    0.604530    0.090680    0.090680
  63    0.604530    0.105793    0.105793
  64    0.604530    0.120906    0.120906
  65    0.604530    0.136019    0.136019
  66    0.604530    0.151133    0.151133
  67    0.587258    0.146815    0.146815
  68    0.569986    0.142496    0.142496
  69    0.552714    0.138178    0.138178
  70    0.535441    0.133860    0.133860
  71    0.518169    0.129542    0.129542
  72    0.500897    0.125224    0.125224
  73    0.483624    0.120906    0.120906
  74    0.466352    0.116588    0.116588
  75    0.449080    0.112270    0.112270
  76    0.431807    0.107952    0.107952
  77    0.414535    0.103634    0.103634
  78    0.397263    0.099316    0.099316
  79    0.379991    0.094998    0.094998
  80    0.362718    0.090680    0.090680
  81    0.345446    0.086361    0.086361
  82    0.328174    0.082043    0.082043
  83    0.310901    0.077725    0.077725
  84    0.293629    0.073407    0.073407
  85    0.276357    0.069089    0.069089
  86    0.259084    0.064771    0.064771
  87    0.241812    0.060453    0.060453
  88    0.224540    0.056135    0.056135
  89    0.207268    0.051817    0.051817
  90    0.189995    0.047499    0.047499
  91    0.172723    0.043181    0.043181
  92    0.155451    0.038863    0.038863
  93    0.138178    0.034545    0.034545
  94    0.120906    0.030227    0.030227
  95    0.103634    0.025908    0.025908
  96    0.086361    0.021590    0.021590
  97    0.069089    0.017272    0.017272
  98    0.051817    0.012954    0.012954
  99    0.034545    0.008636    0.008636
 100    0.017272    0.004318    0.004318
 101    0.000000    0.000000    0.000000

siesta: Band energies (eV):
  ik is    eps
   1  1 -14.89 -14.87 -14.87 -14.86 -12.22 -12.21 -12.21 -12.20  -6.60  -6.60
         -6.60  -6.60  -6.60  -6.60  -6.58  -6.58  -4.00  -4.00  -4.00  -3.98
         -1.95  -1.95  -1.95  -1.94  -1.94  -1.93  -1.93  -1.93   3.50   3.52
          3.52   3.54   5.58   5.58   5.58   5.59   5.59   5.61   5.61   5.61
          5.94   5.95   5.95   5.95   6.05   6.05   6.06   6.07   6.07   6.08
          6.08   6.09   8.38   8.40   8.40   8.40  16.43  16.46  16.46  16.46
         17.41  17.41  17.41  17.42  17.42  17.44  17.45  17.45  19.41  19.41
         19.41  19.41  19.41  19.42  19.43  19.43  19.94  20.03  20.03  20.03
         29.00  29.00  29.00  29.07  29.07  29.08  29.08  29.08  64.90  65.07
         65.07  65.14  80.63  80.63  80.72  81.32  81.36  81.36  81.95  81.95
        116.68 116.68 116.69 117.71
   2  1 -14.90 -14.87 -14.87 -14.86 -12.21 -12.21 -12.21 -12.18  -6.63  -6.63
         -6.63  -6.61  -6.61  -6.61  -6.58  -6.58  -3.97  -3.96  -3.96  -3.96
         -1.96  -1.96  -1.95  -1.93  -1.93  -1.92  -1.91  -1.91   3.49   3.50
          3.50   3.53   5.29   5.29   5.29   5.38   5.38   5.60   5.60   5.60
          5.90   6.02   6.02   6.02   6.10   6.10   6.10   6.28   6.28   6.32
          6.32   6.32   8.41   8.41   8.41   8.41  16.39  16.46  16.46  16.46
         17.36  17.36  17.37  17.37  17.37  17.43  17.43  17.43  19.40  19.40
         19.40  19.41  19.41  19.41  19.47  19.47  19.85  19.85  19.85  20.01
         29.02  29.02  29.02  29.03  29.03  29.03  29.09  29.09  64.32  65.00
         65.00  65.04  76.64  76.64  76.68  79.78  79.87  79.87  81.74  81.74
        116.10 116.83 116.83 116.92
   3  1 -14.95 -14.86 -14.86 -14.86 -12.19 -12.19 -12.19 -12.10  -6.74  -6.74
         -6.74  -6.64  -6.64  -6.64  -6.58  -6.58  -3.96  -3.85  -3.85  -3.85
         -1.98  -1.98  -1.98  -1.92  -1.92  -1.86  -1.86  -1.86   3.44   3.44
          3.44   3.51   4.86   4.86   4.86   5.00   5.00   5.57   5.57   5.57
          5.76   6.07   6.07   6.07   6.15   6.15   6.15   6.70   6.70   6.84
          6.85   6.85   8.45   8.45   8.45   8.52  16.26  16.42  16.42  16.42
         17.17  17.17  17.23  17.23  17.24  17.39  17.39  17.39  19.30  19.30
         19.30  19.33  19.33  19.33  19.42  19.42  19.42  19.59  19.59  20.24
         28.87  28.87  28.87  29.10  29.10  29.10  29.16  29.16  62.25  63.76
         63.76  63.78  68.91  68.91  68.94  75.23  75.31  75.31  81.32  81.32
        111.56 112.83 112.83 112.89
   4  1 -15.04 -14.85 -14.85 -14.85 -12.17 -12.17 -12.17 -11.96  -6.91  -6.91
         -6.91  -6.68  -6.68  -6.68  -6.56  -6.56  -3.95  -3.69  -3.69  -3.69
         -2.01  -2.01  -2.01  -1.91  -1.91  -1.77  -1.77  -1.77   3.29   3.29
          3.29   3.48   4.52   4.52   4.52   4.61   4.61   5.53   5.53   5.53
          5.56   6.15   6.15   6.15   6.23   6.23   6.23   7.16   7.16   7.39
          7.40   7.40   8.53   8.53   8.53   8.67  16.08  16.30  16.30  16.30
         16.88  16.88  17.01  17.01  17.02  17.34  17.34  17.34  18.67  18.67
         18.67  19.21  19.21  19.21  19.41  19.41  19.41  19.76  19.76  20.57
         28.59  28.59  28.59  29.26  29.26  29.28  29.28  29.28  57.48  57.48
         57.49  58.92  66.98  66.98  67.01  69.60  69.66  69.66  80.62  80.62
        103.63 103.63 103.65 105.80
   5  1 -15.15 -14.83 -14.83 -14.83 -12.13 -12.13 -12.13 -11.78  -7.12  -7.12
         -7.11  -6.75  -6.75  -6.75  -6.54  -6.54  -3.92  -3.50  -3.50  -3.50
         -2.02  -2.02  -2.02  -1.90  -1.90  -1.64  -1.64  -1.64   3.01   3.01
          3.01   3.42   4.24   4.24   4.32   4.32   4.32   5.34   5.49   5.49
          5.49   6.25   6.25   6.25   6.32   6.32   6.32   7.62   7.62   7.91
          7.92   7.92   8.68   8.68   8.69   8.81  15.91  16.05  16.05  16.05
         16.53  16.53  16.72  16.72  16.73  17.30  17.30  17.30  18.15  18.15
         18.15  19.05  19.05  19.05  19.42  19.42  19.42  19.95  19.95  20.98
         28.19  28.19  28.19  29.39  29.39  29.59  29.59  29.59  50.84  50.84
         50.85  54.78  64.47  64.51  64.51  67.00  67.00  67.02  79.67  79.67
         94.12  94.12  94.13 100.29
   6  1 -15.28 -14.82 -14.82 -14.81 -12.09 -12.09 -12.09 -11.57  -7.34  -7.34
         -7.34  -6.82  -6.82  -6.82  -6.52  -6.52  -3.90  -3.34  -3.34  -3.34
         -2.00  -2.00  -2.00  -1.88  -1.88  -1.48  -1.48  -1.48   2.62   2.63
          2.63   3.33   3.89   3.89   4.26   4.26   4.26   5.14   5.45   5.45
          5.45   6.36   6.37   6.37   6.42   6.42   6.43   8.09   8.09   8.30
          8.30   8.30   8.92   9.01   9.01   9.01  15.69  15.69  15.69  15.78
         16.15  16.15  16.38  16.38  16.38  17.24  17.24  17.24  17.86  17.87
         17.87  18.84  18.84  18.84  19.45  19.45  19.45  20.13  20.13  21.43
         27.69  27.69  27.69  29.56  29.56  30.01  30.01  30.01  45.36  45.36
         45.37  50.45  60.51  60.54  60.54  66.97  66.97  66.99  78.48  78.48
         87.24  87.24  87.24  95.56
   7  1 -15.42 -14.79 -14.79 -14.79 -12.03 -12.03 -12.03 -11.32  -7.58  -7.58
         -7.58  -6.91  -6.91  -6.91  -6.49  -6.49  -3.86  -3.24  -3.24  -3.24
         -1.89  -1.89  -1.89  -1.86  -1.86  -1.29  -1.29  -1.29   2.18   2.18
          2.18   3.20   3.55   3.55   4.26   4.26   4.26   4.98   5.41   5.41
          5.41   6.49   6.49   6.49   6.53   6.53   6.53   8.51   8.52   8.52
          8.57   8.57   8.95   9.52   9.52   9.52  15.28  15.28  15.28  15.71
         15.76  15.76  16.00  16.00  16.00  17.08  17.08  17.08  17.83  17.83
         17.83  18.59  18.59  18.59  19.51  19.52  19.52  20.30  20.30  21.93
         27.10  27.10  27.10  29.75  29.75  30.54  30.54  30.54  40.95  40.95
         40.96  46.44  57.81  57.83  57.83  66.52  66.52  66.54  77.14  77.14
         83.31  83.31  83.31  91.50
   8  1 -15.56 -14.76 -14.76 -14.76 -11.98 -11.98 -11.98 -11.06  -7.81  -7.81
         -7.81  -7.01  -7.00  -7.00  -6.45  -6.45  -3.82  -3.23  -3.22  -3.22
         -1.84  -1.84  -1.70  -1.70  -1.70  -1.07  -1.07  -1.07   1.71   1.72
          1.72   3.02   3.24   3.24   4.31   4.31   4.31   4.87   5.39   5.39
          5.39   6.62   6.62   6.62   6.65   6.65   6.65   8.67   8.67   8.67
          8.90   9.03   9.03  10.11  10.11  10.11  14.87  14.87  14.87  15.36
         15.36  15.60  15.60  15.60  15.71  16.90  16.90  16.90  17.92  17.92
         17.92  18.30  18.30  18.30  19.61  19.61  19.61  20.44  20.44  22.46
         26.45  26.45  26.46  29.96  29.96  31.12  31.12  31.12  37.45  37.45
         37.46  43.00  56.19  56.20  56.20  65.58  65.58  65.59  75.77  75.77
         81.57  81.58  81.58  87.85
   9  1 -15.70 -14.72 -14.72 -14.72 -11.92 -11.92 -11.92 -10.77  -8.04  -8.04
         -8.04  -7.10  -7.10  -7.10  -6.40  -6.40  -3.77  -3.27  -3.27  -3.27
         -1.83  -1.83  -1.42  -1.42  -1.42  -0.82  -0.82  -0.82   1.24   1.24
          1.24   2.79   2.95   2.95   4.38   4.39   4.39   4.82   5.37   5.37
          5.37   6.74   6.74   6.74   6.76   6.76   6.76   8.77   8.82   8.83
          8.83   9.46   9.46  10.71  10.72  10.72  14.47  14.47  14.47  15.00
[...]
         10.59  11.05  11.13  11.36  11.47  11.79  12.13  12.41  13.04  13.36
         14.05  14.26  14.50  14.54  14.69  15.53  15.90  16.19  16.40  17.08
         17.67  17.78  18.67  18.84  19.45  20.65  21.77  22.34  22.72  23.16
         23.31  23.65  24.63  24.99  26.17  26.37  31.67  36.30  37.67  39.76
         41.46  50.35  52.49  53.62  55.56  64.30  64.52  64.53  66.78  70.84
         76.21  86.88  94.20  95.19
  93  1 -16.08 -15.42 -14.29 -13.97 -12.13 -11.76 -10.35  -9.49  -9.36  -9.19
         -8.18  -7.95  -7.75  -7.51  -7.27  -6.37  -3.21  -3.17  -2.75  -2.10
         -1.99  -1.62  -1.59  -0.84  -0.83  -0.64  -0.37  -0.29   0.61   0.67
          1.28   2.05   2.08   2.08   2.74   3.57   4.03   4.06   4.68   5.71
          5.82   5.87   7.72   7.88   8.35   8.50   9.02   9.43   9.53  10.24
         10.59  11.02  11.12  11.36  11.46  11.80  12.14  12.40  13.04  13.33
         14.06  14.22  14.50  14.54  14.70  15.57  15.93  16.19  16.40  17.09
         17.68  17.78  18.68  18.85  19.47  20.66  21.77  22.31  22.73  23.17
         23.31  23.65  24.61  25.01  26.17  26.40  31.77  36.30  37.67  39.66
         41.65  50.18  52.38  53.51  55.50  64.36  64.52  64.63  66.86  70.90
         76.32  86.93  94.32  95.14
  94  1 -15.88 -15.25 -14.37 -14.37 -12.03 -12.03 -11.00 -10.21  -8.78  -8.78
         -7.79  -7.49  -7.49  -7.19  -6.69  -6.67  -3.32  -3.17  -2.96  -2.96
         -2.07  -1.43  -1.43  -1.27  -1.22  -0.47  -0.26   0.48   0.48   0.69
          0.92   0.92   2.93   2.93   3.30   3.41   5.02   5.13   5.17   5.51
          5.53   5.53   6.53   6.53   7.33   8.31   8.96   9.20   9.20   9.20
          9.50   9.50  11.09  11.41  11.41  11.84  13.15  13.39  13.51  13.51
         13.56  14.61  15.02  15.03  16.12  16.12  16.35  16.52  17.21  17.42
         17.42  17.96  17.96  19.19  19.27  19.27  20.78  21.93  22.05  23.65
         24.51  24.51  25.21  27.17  27.61  27.61  31.95  32.80  35.38  35.38
         41.27  48.93  54.63  54.64  57.85  59.47  63.75  65.70  65.70  68.68
         84.10  88.28  88.28  94.34
  95  1 -15.49 -14.95 -14.95 -14.60 -12.04 -11.65 -11.65 -11.02  -8.33  -7.92
         -7.92  -7.22  -6.97  -6.93  -6.93  -6.38  -3.30  -3.18  -2.86  -2.86
         -2.09  -2.09  -1.77  -1.71  -1.31  -0.94  -0.83  -0.82   1.42   1.42
          2.20   2.41   2.58   3.26   3.61   4.07   4.07   4.44   4.44   4.78
          5.24   7.07   7.07   7.21   7.21   7.84   8.12   8.66   8.97   8.97
          9.01   9.32   9.36  10.09  10.53  10.53  13.85  14.11  14.11  15.09
         15.09  15.15  15.48  15.64  15.81  16.02  16.48  16.48  17.63  18.38
         18.38  18.41  18.96  18.96  19.40  19.71  20.49  20.49  21.14  21.53
         26.93  27.03  27.03  28.47  28.68  32.25  32.25  34.35  38.83  39.84
         39.85  45.89  54.88  54.90  58.85  59.41  60.97  73.18  73.18  78.31
         84.66  84.67  84.99 106.89
  96  1 -15.48 -14.96 -14.95 -14.60 -12.04 -11.65 -11.65 -11.02  -8.33  -7.92
         -7.91  -7.22  -6.97  -6.94  -6.92  -6.39  -3.32  -3.19  -2.86  -2.85
         -2.09  -2.08  -1.78  -1.72  -1.31  -0.95  -0.82  -0.81   1.44   1.46
          2.19   2.41   2.62   3.24   3.60   4.05   4.06   4.43   4.43   4.78
          5.25   7.05   7.06   7.18   7.19   7.83   8.14   8.65   8.95   8.96
          9.02   9.35   9.39  10.10  10.54  10.57  13.87  14.10  14.11  15.07
         15.09  15.15  15.50  15.66  15.82  16.02  16.44  16.46  17.62  18.37
         18.40  18.42  18.92  18.96  19.38  19.69  20.49  20.50  21.12  21.59
         26.89  27.00  27.05  28.44  28.68  32.24  32.26  34.29  38.82  39.81
         39.86  45.82  54.95  55.07  58.69  59.31  60.73  73.06  73.07  78.37
         84.60  84.66  85.04 106.14
  97  1 -15.48 -14.95 -14.95 -14.62 -12.03 -11.65 -11.65 -11.02  -8.33  -7.92
         -7.92  -7.23  -6.96  -6.93  -6.93  -6.39  -3.31  -3.18  -2.87  -2.87
         -2.09  -2.08  -1.76  -1.72  -1.29  -0.93  -0.82  -0.82   1.45   1.45
          2.21   2.42   2.59   3.24   3.59   4.05   4.06   4.42   4.42   4.76
          5.21   7.05   7.05   7.20   7.20   7.84   8.12   8.64   8.95   8.95
          9.00   9.36   9.38  10.12  10.58  10.58  13.88  14.13  14.13  15.10
         15.10  15.12  15.50  15.64  15.80  15.99  16.44  16.44  17.60  18.38
         18.38  18.42  18.97  18.97  19.38  19.69  20.48  20.48  21.13  21.57
         26.94  27.01  27.01  28.42  28.69  32.17  32.17  34.33  38.85  39.81
         39.81  45.94  54.76  54.78  58.89  59.35  60.81  73.05  73.05  78.23
         84.48  84.49  85.11 106.55
  98  1 -15.66 -15.05 -15.05 -14.54 -11.63 -11.02 -11.02 -10.22  -9.29  -8.81
         -8.81  -8.23  -7.09  -7.02  -7.02  -6.32  -3.30  -2.68  -2.43  -2.43
         -1.75  -1.74  -1.39  -1.17  -0.09  -0.09  -0.08   0.10   0.44   0.44
          0.73   1.24   1.73   2.15   2.47   2.72   2.73   4.27   4.27   5.36
          5.76   7.68   7.68   8.19   8.74   8.74   9.38   9.70   9.91  10.01
         10.01  10.70  11.09  11.75  11.75  12.05  12.72  12.91  12.92  12.93
         13.50  13.79  13.79  14.41  14.91  15.13  15.14  15.54  17.40  18.19
         18.20  19.23  19.84  19.96  19.97  20.44  21.52  21.52  21.79  22.35
         25.64  25.65  26.00  26.01  27.65  36.03  36.04  40.47  42.71  42.71
         49.03  52.14  52.15  53.05  58.22  59.74  60.88  68.61  68.63  78.74
         79.05  81.37  81.37  97.44
  99  1 -15.66 -15.05 -15.05 -14.54 -11.63 -11.02 -11.02 -10.22  -9.29  -8.81
         -8.81  -8.22  -7.09  -7.02  -7.02  -6.32  -3.30  -2.67  -2.43  -2.43
         -1.74  -1.74  -1.39  -1.16  -0.12  -0.12  -0.09   0.08   0.44   0.44
          0.71   1.24   1.75   2.16   2.46   2.74   2.74   4.27   4.27   5.37
          5.77   7.68   7.68   8.18   8.74   8.74   9.38   9.69   9.89  10.04
         10.04  10.70  11.12  11.73  11.73  12.02  12.74  12.87  12.87  12.90
         13.47  13.79  13.80  14.41  14.93  15.16  15.17  15.55  17.40  18.19
         18.20  19.24  19.85  19.96  19.96  20.45  21.53  21.53  21.80  22.33
         25.63  25.64  26.01  26.01  27.66  36.06  36.06  40.47  42.87  42.88
         49.07  52.03  52.03  53.09  58.29  59.76  60.78  68.82  68.82  78.68
         79.08  81.45  81.46  97.45
 100  1 -15.49 -14.95 -14.95 -14.60 -12.04 -11.65 -11.65 -11.02  -8.33  -7.92
         -7.92  -7.22  -6.97  -6.93  -6.93  -6.38  -3.30  -3.18  -2.86  -2.86
         -2.09  -2.09  -1.77  -1.71  -1.31  -0.94  -0.83  -0.82   1.42   1.42
          2.20   2.41   2.58   3.26   3.61   4.07   4.07   4.44   4.44   4.78
          5.24   7.07   7.07   7.21   7.21   7.84   8.12   8.66   8.97   8.97
          9.01   9.32   9.36  10.09  10.53  10.53  13.85  14.11  14.11  15.09
         15.09  15.15  15.48  15.64  15.81  16.02  16.48  16.48  17.63  18.38
         18.38  18.41  18.96  18.96  19.40  19.71  20.49  20.49  21.14  21.53
         26.93  27.03  27.03  28.47  28.68  32.25  32.25  34.35  38.83  39.84
         39.85  45.89  54.88  54.90  58.85  59.41  60.97  73.18  73.18  78.31
         84.66  84.67  84.99 106.89
 101  1 -15.19 -14.83 -14.83 -14.83 -12.12 -12.12 -12.12 -11.73  -7.17  -7.17
         -7.17  -6.77  -6.76  -6.76  -6.54  -6.54  -3.92  -3.46  -3.46  -3.46
         -2.02  -2.02  -2.02  -1.89  -1.89  -1.60  -1.60  -1.60   2.92   2.93
          2.93   3.40   4.15   4.15   4.30   4.30   4.30   5.29   5.47   5.48
          5.48   6.28   6.28   6.28   6.35   6.35   6.35   7.74   7.74   8.03
          8.03   8.03   8.74   8.74   8.75   8.84  15.87  15.97  15.97  15.97
         16.44  16.44  16.64  16.64  16.64  17.29  17.29  17.29  18.05  18.05
         18.05  19.00  19.00  19.00  19.43  19.43  19.43  19.99  19.99  21.09
         28.08  28.08  28.08  29.43  29.43  29.68  29.68  29.68  49.36  49.36
         49.37  53.70  63.36  63.39  63.39  67.02  67.02  67.04  79.37  79.37
         92.12  92.12  92.13  99.03
 102  1 -15.17 -14.85 -14.83 -14.83 -12.12 -12.12 -12.11 -11.73  -7.17  -7.17
         -7.16  -6.77  -6.77  -6.76  -6.55  -6.55  -3.94  -3.46  -3.46  -3.44
         -2.01  -2.01  -2.01  -1.91  -1.89  -1.62  -1.61  -1.60   2.94   2.95
          2.96   3.39   4.14   4.16   4.29   4.29   4.30   5.29   5.45   5.46
          5.46   6.24   6.24   6.26   6.32   6.33   6.34   7.74   7.77   8.03
          8.04   8.05   8.74   8.77   8.77   8.87  15.90  15.94  15.97  15.97
         16.44  16.46  16.64  16.66  16.66  17.26  17.27  17.28  17.99  18.04
         18.05  18.99  19.00  19.00  19.42  19.43  19.44  19.98  19.98  21.16
         28.02  28.02  28.08  29.35  29.43  29.71  29.71  29.73  49.34  49.34
         49.49  53.70  63.16  63.18  63.59  67.03  67.17  67.19  78.55  79.03
         91.83  91.95  92.00  98.78
 103  1 -15.48 -14.96 -14.95 -14.60 -12.04 -11.65 -11.65 -11.02  -8.33  -7.92
         -7.91  -7.22  -6.97  -6.94  -6.92  -6.39  -3.32  -3.19  -2.86  -2.85
         -2.09  -2.08  -1.78  -1.72  -1.31  -0.95  -0.82  -0.81   1.44   1.46
          2.19   2.41   2.62   3.24   3.60   4.05   4.06   4.43   4.43   4.78
          5.25   7.05   7.06   7.18   7.19   7.83   8.14   8.65   8.95   8.96
          9.02   9.35   9.39  10.10  10.54  10.57  13.87  14.10  14.11  15.07
         15.09  15.15  15.50  15.66  15.82  16.02  16.44  16.46  17.62  18.37
         18.40  18.42  18.92  18.96  19.38  19.69  20.49  20.50  21.12  21.59
         26.89  27.00  27.05  28.44  28.68  32.24  32.26  34.29  38.82  39.81
         39.86  45.82  54.95  55.07  58.69  59.31  60.73  73.06  73.07  78.37
         84.60  84.66  85.04 106.14
 104  1 -15.65 -15.06 -15.05 -14.53 -11.64 -11.02 -11.01 -10.22  -9.29  -8.81
         -8.81  -8.22  -7.09  -7.03  -7.01  -6.32  -3.31  -2.69  -2.43  -2.41
         -1.74  -1.73  -1.40  -1.17  -0.10  -0.09  -0.09   0.08   0.45   0.45
          0.71   1.23   1.73   2.15   2.50   2.74   2.75   4.24   4.24   5.39
          5.79   7.65   7.66   8.19   8.74   8.75   9.41   9.70   9.92  10.01
         10.03  10.71  11.10  11.72  11.73  12.04  12.74  12.89  12.90  12.91
         13.49  13.77  13.79  14.43  14.92  15.13  15.16  15.56  17.44  18.18
         18.21  19.21  19.85  19.95  19.97  20.42  21.54  21.55  21.77  22.35
         25.62  25.64  26.01  26.03  27.65  36.03  36.06  40.45  42.83  42.87
         48.82  52.24  52.30  53.08  58.04  59.63  60.90  68.64  68.71  78.73
         79.15  81.36  81.46  97.50
 105  1 -15.65 -15.06 -15.05 -14.53 -11.64 -11.02 -11.01 -10.22  -9.29  -8.81
         -8.81  -8.22  -7.09  -7.03  -7.01  -6.32  -3.31  -2.69  -2.43  -2.41
         -1.74  -1.73  -1.40  -1.17  -0.10  -0.09  -0.09   0.08   0.45   0.45
          0.71   1.23   1.73   2.15   2.50   2.74   2.75   4.24   4.24   5.39
          5.79   7.65   7.66   8.19   8.74   8.75   9.41   9.70   9.92  10.01
         10.03  10.71  11.10  11.72  11.73  12.04  12.74  12.89  12.90  12.91
         13.49  13.77  13.79  14.43  14.92  15.13  15.16  15.56  17.44  18.18
         18.21  19.21  19.85  19.95  19.97  20.42  21.54  21.55  21.77  22.35
         25.62  25.64  26.01  26.03  27.65  36.03  36.06  40.45  42.83  42.87
         48.82  52.24  52.30  53.08  58.04  59.63  60.90  68.64  68.71  78.73
         79.15  81.36  81.46  97.50
 106  1 -15.48 -14.96 -14.95 -14.60 -12.04 -11.65 -11.65 -11.02  -8.33  -7.92
         -7.91  -7.22  -6.97  -6.94  -6.92  -6.39  -3.32  -3.19  -2.86  -2.85
         -2.09  -2.08  -1.78  -1.72  -1.31  -0.95  -0.82  -0.81   1.44   1.46
          2.19   2.41   2.62   3.24   3.60   4.05   4.06   4.43   4.43   4.78
          5.25   7.05   7.06   7.18   7.19   7.83   8.14   8.65   8.95   8.96
          9.02   9.35   9.39  10.10  10.54  10.57  13.87  14.10  14.11  15.07
         15.09  15.15  15.50  15.66  15.82  16.02  16.44  16.46  17.62  18.37
         18.40  18.42  18.92  18.96  19.38  19.69  20.49  20.50  21.12  21.59
         26.89  27.00  27.05  28.44  28.68  32.24  32.26  34.29  38.82  39.81
         39.86  45.82  54.95  55.07  58.69  59.31  60.73  73.06  73.07  78.37
         84.60  84.66  85.04 106.14
 107  1 -15.17 -14.85 -14.83 -14.83 -12.12 -12.12 -12.11 -11.73  -7.17  -7.17
         -7.16  -6.77  -6.77  -6.76  -6.55  -6.55  -3.94  -3.46  -3.46  -3.44
         -2.01  -2.01  -2.01  -1.91  -1.89  -1.62  -1.61  -1.60   2.94   2.95
          2.96   3.39   4.14   4.16   4.29   4.29   4.30   5.29   5.45   5.46
          5.46   6.24   6.24   6.26   6.32   6.33   6.34   7.74   7.77   8.03
          8.04   8.05   8.74   8.77   8.77   8.87  15.90  15.94  15.97  15.97
         16.44  16.46  16.64  16.66  16.66  17.26  17.27  17.28  17.99  18.04
         18.05  18.99  19.00  19.00  19.42  19.43  19.44  19.98  19.98  21.16
         28.02  28.02  28.08  29.35  29.43  29.71  29.71  29.73  49.34  49.34
         49.49  53.70  63.16  63.18  63.59  67.03  67.17  67.19  78.55  79.03
         91.83  91.95  92.00  98.78
 108  1 -15.17 -14.85 -14.83 -14.83 -12.12 -12.12 -12.11 -11.73  -7.17  -7.17
         -7.16  -6.77  -6.77  -6.76  -6.55  -6.55  -3.94  -3.46  -3.46  -3.44
         -2.01  -2.01  -2.01  -1.91  -1.89  -1.62  -1.61  -1.60   2.94   2.95
          2.96   3.39   4.14   4.16   4.29   4.29   4.30   5.29   5.45   5.46
          5.46   6.24   6.24   6.26   6.32   6.33   6.34   7.74   7.77   8.03
          8.04   8.05   8.74   8.77   8.77   8.87  15.90  15.94  15.97  15.97
         16.44  16.46  16.64  16.66  16.66  17.26  17.27  17.28  17.99  18.04
         18.05  18.99  19.00  19.00  19.42  19.43  19.44  19.98  19.98  21.16
         28.02  28.02  28.08  29.35  29.43  29.71  29.71  29.73  49.34  49.34
         49.49  53.70  63.16  63.18  63.59  67.03  67.17  67.19  78.55  79.03
         91.83  91.95  92.00  98.78
siesta: Fermi energy =      -5.001444 eV

siesta: Program's energy decomposition (eV):
siesta: Ebs     =      -331.873269
siesta: Eions   =      1510.441798
siesta: Ena     =       471.219178
siesta: Ekin    =       319.506215
siesta: Enl     =       127.120533
siesta: DEna    =         6.554858
siesta: DUscf   =         1.522099
siesta: DUext   =         0.000000
siesta: Exc     =      -446.152487
siesta: eta*DQ  =         0.000000
siesta: Emadel  =         0.000000
siesta: Emeta   =         0.000000
siesta: Emolmec =         0.000000
siesta: Ekinion =         0.000000
siesta: Eharris =     -1030.674606
siesta: Etot    =     -1030.671402
siesta: FreeEng =     -1030.671402

siesta: Final energy (eV):
siesta:  Band Struct. =    -331.873269
siesta:       Kinetic =     319.506215
siesta:       Hartree =      59.822283
siesta:    Ext. field =       0.000000
siesta:   Exch.-corr. =    -446.152487
siesta:  Ion-electron =    -422.043741
siesta:       Ion-ion =    -541.803673
siesta:       Ekinion =       0.000000
siesta:         Total =   -1030.671402

siesta: Stress tensor (static) (eV/Ang**3):
siesta:    -0.000695    0.000706    0.000706
siesta:     0.000706   -0.000695    0.000706
siesta:     0.000706    0.000706   -0.000695

siesta: Constrained stress tensor (static) (eV/Ang**3):
siesta:    -0.000695    0.000706    0.000706
siesta:     0.000706   -0.000695    0.000706
siesta:     0.000706    0.000706   -0.000695

siesta: Cell volume =        167.831330 Ang**3

siesta: Pressure (static):
siesta:                Solid            Molecule  Units
siesta:           0.00000757          0.00001978  Ry/Bohr**3
siesta:           0.00069499          0.00181601  eV/Ang**3
siesta:           1.11350808          2.90960248  kBar
(Free)E+ p_basis*V_orbitals  =       -1021.733672
(Free)Eharris+ p_basis*V_orbitals  =       -1021.737885

* Maximum dynamic memory allocated : Node    0 =    84 MB

* Maximum memory occured during init_pulay_arrrays            

timer: CPU execution times:
timer:  Routine       Calls   Time/call    Tot.time        %
timer:  siesta            1     362.555     362.555   100.00
timer:  Setup             1       0.120       0.120     0.03
timer:  bands             3       0.565       1.696     0.47
timer:  writewave         3       0.011       0.032     0.01
timer:  KSV_init          1       0.000       0.000     0.00
timer:  IterMD            5      72.116     360.579    99.45
timer:  hsparse           5       0.151       0.756     0.21
timer:  overlap           5       0.139       0.696     0.19
timer:  IterSCF          20      14.231     284.618    78.50
timer:  kinefsm          10       0.141       1.408     0.39
timer:  nlefsm           10       3.478      34.782     9.59
timer:  DHSCF            25       8.412     210.289    58.00
timer:  DHSCF1            5       0.050       0.252     0.07
timer:  DHSCF2            5       2.311      11.557     3.19
timer:  REORD           160       0.000       0.012     0.00
timer:  POISON           30       0.005       0.144     0.04
timer:  DHSCF3           25       7.187     179.663    49.55
timer:  rhoofd           25       3.217      80.429    22.18
timer:  cellXC           25       0.120       3.004     0.83
timer:  vmat             25       3.843      96.070    26.50
timer:  MolMec           10       0.000       0.000     0.00
timer:  diagon           20       5.554     111.087    30.64
timer:  c-eigval       2261       0.015      34.962     9.64
timer:  c-buildHS      2261       0.011      24.338     6.71
timer:  cdiag          4422       0.007      31.578     8.71
timer:  cdiag1         4422       0.001       2.332     0.64
timer:  cdiag2         4422       0.002       8.420     2.32
timer:  cdiag3         4422       0.005      20.061     5.53
timer:  cdiag4         4422       0.000       0.640     0.18
timer:  c-eigvec       2161       0.020      44.271    12.21
timer:  c-buildD       2160       0.015      33.366     9.20
timer:  DHSCF4            5       3.761      18.805     5.19
timer:  dfscf             5       3.536      17.681     4.88
timer:  overfsm           5       0.125       0.624     0.17
timer:  optical           1       0.000       0.000     0.00
  

elaps: ELAPSED times:
elaps:  Routine       Calls   Time/call    Tot.time        %
elaps:  siesta            1     364.781     364.781   100.00
elaps:  Setup             1       0.119       0.119     0.03
elaps:  bands             3       0.569       1.706     0.47
elaps:  writewave         3       0.010       0.029     0.01
elaps:  KSV_init          1       0.000       0.000     0.00
elaps:  IterMD            5      72.558     362.789    99.45
elaps:  hsparse           5       0.152       0.758     0.21
elaps:  overlap           5       0.139       0.696     0.19
elaps:  IterSCF          20      14.311     286.226    78.47
elaps:  kinefsm          10       0.143       1.427     0.39
elaps:  nlefsm           10       3.499      34.991     9.59
elaps:  DHSCF            25       8.463     211.565    58.00
elaps:  DHSCF1            5       0.050       0.248     0.07
elaps:  DHSCF2            5       2.331      11.656     3.20
elaps:  REORD           160       0.000       0.012     0.00
elaps:  POISON           30       0.005       0.141     0.04
elaps:  DHSCF3           25       7.227     180.673    49.53
elaps:  rhoofd           25       3.232      80.798    22.15
elaps:  cellXC           25       0.121       3.018     0.83
elaps:  vmat             25       3.868      96.701    26.51
elaps:  MolMec           10       0.000       0.000     0.00
elaps:  diagon           20       5.587     111.743    30.63
elaps:  c-eigval       2261       0.016      35.150     9.64
elaps:  c-buildHS      2261       0.011      24.506     6.72
elaps:  cdiag          4422       0.007      31.725     8.70
elaps:  cdiag1         4422       0.001       2.459     0.67
elaps:  cdiag2         4422       0.002       8.362     2.29
elaps:  cdiag3         4422       0.005      20.133     5.52
elaps:  cdiag4         4422       0.000       0.658     0.18
elaps:  c-eigvec       2161       0.021      44.497    12.20
elaps:  c-buildD       2160       0.016      33.654     9.23
elaps:  DHSCF4            5       3.796      18.981     5.20
elaps:  dfscf             5       3.569      17.847     4.89
elaps:  overfsm           5       0.126       0.631     0.17
elaps:  optical           1       0.000       0.000     0.00
  
>> End of run:   9-MAY-2013  15:02:04
