Siesta Version:                                        siesta-3.2
Architecture  : i686-apple-darwin10.8.0--unknown
Compiler flags: g95 -g -O2
SERIAL version

* Running in serial mode
>> Start of run:  13-MAY-2013  12:58:57

                           ***********************       
                           *  WELCOME TO SIESTA  *       
                           ***********************       

reinit: Reading from standard input
************************** Dump of input data file ****************************
# FDF for silicon
SystemName             silicon          # Descriptive name of the system
SystemLabel            si          # Short name for naming files
NumberOfAtoms 8
NumberOfSpecies 1
%block ChemicalSpeciesLabel
1 14 Si
%endblock ChemicalSpeciesLabel
LatticeConstant  5.10 Ang
##Basis set Definition##
PAO.BasisType          split        # Type of PAO basis set
PAO.EnergyShift        50 meV
PAO.BasisSize          DZP          # (DZP) Double-z + polarization
#%block LatticeVectors
#0.500 0.500 0.000
#0.500 0.000 0.500
#0.000 0.500 0.500
#%endblock LatticeVectors
AtomicCoordinatesFormat NotScaledCartesianAng
%block AtomicCoordinatesAndAtomicSpecies
	0.00000000	0.00000000	0.00000000  1 Si  1
	1.36000000	1.36000000	1.36000000  1 Si  2
	2.72000000	2.72000000	0.00000000  1 Si  3
	4.08000000	4.08000000	1.36000000  1 Si  4
	2.72000000	0.00000000	2.72000000  1 Si  5
	4.08000000	1.36000000	4.08000000  1 Si  6
	0.00000000	2.72000000	2.72000000  1 Si  7
	1.36000000	4.08000000	4.08000000  1 Si  8
%endblock AtomicCoordinatesAndAtomicSpecies
MeshCutoff 100.0 Ry # 100, 120, 180, 260
kgrid_cutoff 40.0 Bohr # 30, 35, 40, 45
Diag.Memory 1.5
DM.Mixingweight  0.3
DM.NumberPulay    3
DM.Tolerance      1.d-3
DM.UseSaveDM      true
ElectronicTemperature 25 meV
SolutionMethod    diagon
XC.functional      GGA	    # Generalized Gradient Approximation
XC.authors        PBE          # Perdew-Burke-Ernzerhof
SpinPolarized     false
MD.TypeOfRun           CG           # Type of dynamics:
MD.VariableCell        true
MD.NumCGsteps          100          # Number of CG steps for coordinate optimization
MD.MaxCGDispl          0.2 Bohr     # Maximum atomic displacement
                                    #   in one CG step (Bohr)
MD.MaxForceTol         0.04 eV/Ang  # Tolerance in the maximum
                                    #   atomic force (Ry/Bohr)
				
##Output Specification##
WriteMDhistory         true         # Trajectory information
WriteCoorStep          true
WriteCoorXmol          true
WriteMDXmol            true
WriteEigenvalues true
WriteKbands      true
WriteBands       true
WriteWaveFunctions true
WriteMullikenPoP   1
%block BandLines
1	1.000	1.000 1.000 L
25	0.000	0.000	0.000 \Gamma
30	2.000	0.000	0.000 X
10	2.000	0.500	0.500 U
35	0.000	0.000	0.000 \Gamma
%endblock BandLines
%block WaveFuncKPoints
0.0 0.0 0.0 from 1 to 50 # > 16 = 4/2*8 (Valenzelektronen/2, Atomzahl ...)
%endblock WaveFuncKpoints
************************** End of input data file *****************************

reinit: -----------------------------------------------------------------------
reinit: System Name: silicon
reinit: -----------------------------------------------------------------------
reinit: System Label: si                                                          
reinit: -----------------------------------------------------------------------

initatom: Reading input for the pseudopotentials and atomic orbitals ----------
 Species number:  1  Label: Si Atomic number: 14
Ground state valence configuration:   3s02  3p02
Reading pseudopotential information in formatted form from Si.psf

Valence configuration for pseudopotential generation:
3s( 2.00) rc: 1.75
3p( 2.00) rc: 1.94
3d( 0.00) rc: 2.09
4f( 0.00) rc: 2.09
For Si, standard SIESTA heuristics set lmxkb to 3
 (one more than the basis l, including polarization orbitals).
Use PS.lmax or PS.KBprojectors blocks to override.

<basis_specs>
===============================================================================
Si                   Z=  14    Mass=  28.090        Charge= 0.17977+309
Lmxo=1 Lmxkb= 3    BasisType=split      Semic=F
L=0  Nsemic=0  Cnfigmx=3
          n=1  nzeta=2  polorb=0
            splnorm:   0.15000    
               vcte:    0.0000    
               rinn:    0.0000    
                rcs:    0.0000      0.0000    
            lambdas:    1.0000      1.0000    
L=1  Nsemic=0  Cnfigmx=3
          n=1  nzeta=2  polorb=1
            splnorm:   0.15000    
               vcte:    0.0000    
               rinn:    0.0000    
                rcs:    0.0000      0.0000    
            lambdas:    1.0000      1.0000    
-------------------------------------------------------------------------------
L=0  Nkbl=1  erefs: 0.17977+309
L=1  Nkbl=1  erefs: 0.17977+309
L=2  Nkbl=1  erefs: 0.17977+309
L=3  Nkbl=1  erefs: 0.17977+309
===============================================================================
</basis_specs>

atom: Called for Si                    (Z =  14)

read_vps: Pseudopotential generation method:
read_vps: ATM3      Troullier-Martins                       
Total valence charge:    4.00000

read_vps: Pseudopotential includes a core correction:
read_vps: Pseudo-core for xc-correction

xc_check: Exchange-correlation functional:
xc_check: GGA Perdew, Burke & Ernzerhof 1996
V l=0 = -2*Zval/r beyond r=  2.0104
V l=1 = -2*Zval/r beyond r=  2.0873
V l=2 = -2*Zval/r beyond r=  2.1670
V l=3 = -2*Zval/r beyond r=  2.1670
All V_l potentials equal beyond r=  2.0613
This should be close to max(r_c) in ps generation
All pots = -2*Zval/r beyond r=  2.1670

VLOCAL1: 99.0% of the norm of Vloc inside     10.216 Ry
VLOCAL1: 99.9% of the norm of Vloc inside     23.282 Ry
atom: Maximum radius for 4*pi*r*r*local-pseudopot. charge    2.45560
atom: Maximum radius for r*vlocal+2*Zval:    2.14012
GHOST: No ghost state for L =  0
GHOST: No ghost state for L =  1
GHOST: No ghost state for L =  2
GHOST: No ghost state for L =  3

KBgen: Kleinman-Bylander projectors: 
   l= 0   rc=  2.306811   el= -0.791441   Ekb=  5.289775   kbcos=  0.291595
   l= 1   rc=  2.394965   el= -0.300632   Ekb=  1.944256   kbcos=  0.287657
   l= 2   rc=  2.549439   el=  0.001958   Ekb= -1.788485   kbcos= -0.056492
   l= 3   rc=  2.782581   el=  0.003046   Ekb= -0.472620   kbcos= -0.006203

KBgen: Total number of  Kleinman-Bylander projectors:   16
atom: -------------------------------------------------------------------------

atom: SANKEY-TYPE ORBITALS:
atom: Selected multiple-zeta basis: split     

SPLIT: Orbitals with angular momentum L= 0

SPLIT: Basis orbitals for state 3s

SPLIT: PAO cut-off radius determined from an
SPLIT: energy shift=  0.003675 Ry

   izeta = 1
                 lambda =    1.000000
                     rc =    6.116033
                 energy =   -0.788343
                kinetic =    0.528041
    potential(screened) =   -1.316383
       potential(ionic) =   -3.704743

   izeta = 2
                 rmatch =    4.530823
              splitnorm =    0.150000
                 energy =   -0.692892
                kinetic =    0.848665
    potential(screened) =   -1.541557
       potential(ionic) =   -4.044985

SPLIT: Orbitals with angular momentum L= 1

SPLIT: Basis orbitals for state 3p

SPLIT: PAO cut-off radius determined from an
SPLIT: energy shift=  0.003675 Ry

   izeta = 1
                 lambda =    1.000000
                     rc =    7.853192
                 energy =   -0.297152
                kinetic =    0.797948
    potential(screened) =   -1.095101
       potential(ionic) =   -3.275753

   izeta = 2
                 rmatch =    5.330310
              splitnorm =    0.150000
                 energy =   -0.228170
                kinetic =    1.148579
    potential(screened) =   -1.376749
       potential(ionic) =   -3.739005

POLgen: Perturbative polarization orbital with L=  2

POLgen: Polarization orbital for state 3p

   izeta = 1
                     rc =    7.853192
                 energy =    0.340222
                kinetic =    1.096718
    potential(screened) =   -0.756496
       potential(ionic) =   -2.716423
atom: Total number of Sankey-type orbitals: 13

atm_pop: Valence configuration (for local Pseudopot. screening):
 3s( 2.00)                                                            
 3p( 2.00)                                                            
Vna: chval, zval:    4.00000   4.00000

Vna:  Cut-off radius for the neutral-atom potential:   7.853192
comcore: Pseudo-core radius Rcore=  2.999314

atom: _________________________________________________________________________

prinput: Basis input ----------------------------------------------------------

PAO.BasisType split     

%block ChemicalSpeciesLabel
    1   14 Si                      # Species index, atomic number, species label
%endblock ChemicalSpeciesLabel

%block PAO.Basis                 # Define Basis set
Si                    2                    # Species label, number of l-shells
 n=3   0   2                         # n, l, Nzeta 
   6.116      4.531   
   1.000      1.000   
 n=3   1   2 P   1                   # n, l, Nzeta, Polarization, NzetaPol
   7.853      5.330   
   1.000      1.000   
%endblock PAO.Basis

prinput: ----------------------------------------------------------------------

coor:   Atomic-coordinates input format  =     Cartesian coordinates
coor:                                          (in Angstroms)

siesta: Atomic coordinates (Bohr) and species
siesta:      0.00000   0.00000   0.00000  1        1
siesta:      2.57003   2.57003   2.57003  1        2
siesta:      5.14006   5.14006   0.00000  1        3
siesta:      7.71009   7.71009   2.57003  1        4
siesta:      5.14006   0.00000   5.14006  1        5
siesta:      7.71009   2.57003   7.71009  1        6
siesta:      0.00000   5.14006   5.14006  1        7
siesta:      2.57003   7.71009   7.71009  1        8

siesta: System type = bulk      

initatomlists: Number of atoms, orbitals, and projectors:      8   104   128

siesta: ******************** Simulation parameters ****************************
siesta:
siesta: The following are some of the parameters of the simulation.
siesta: A complete list of the parameters used, including default values,
siesta: can be found in file out.fdf
siesta:
redata: Non-Collinear-spin run           =     F
redata: SpinPolarized (Up/Down) run      =     F
redata: Number of spin components        =     1
redata: Long output                      =     F
redata: Number of Atomic Species         =        1
redata: Charge density info will appear in .RHO file
redata: Write Mulliken Pop.              =     Atomic and Orbital charges
redata: Mesh Cutoff                      =   100.0000  Ry
redata: Net charge of the system         =     0.0000 |e|
redata: Max. number of SCF Iter          =       50
redata: Performing Pulay mixing using    =     3 iterations
redata: Mix DM in first SCF step ?       =     F
redata: Write Pulay info on disk?        =     F
redata: Discard 1st Pulay DM after  kick =     F
redata: New DM Mixing Weight             =     0.3000
redata: New DM Occupancy tolerance       = 0.000000000001
redata: No kicks to SCF
redata: DM Mixing Weight for Kicks       =     0.5000
redata: DM Tolerance for SCF             =     0.001000
redata: Require Energy convergence for SCF =     F
redata: DM Energy tolerance for SCF      =     0.000100 eV
redata: Require Harris convergence for SCF =     F
redata: DM Harris energy tolerance for SCF =     0.000100 eV
redata: Using Saved Data (generic)   =     F
redata: Use continuation files for DM    =     T
redata: Neglect nonoverlap interactions  =     F
redata: Method of Calculation            =     Diagonalization
redata: Divide and Conquer               =     T
redata: Electronic Temperature           =     0.0018  Ry
redata: Fix the spin of the system       =     F
redata: Dynamics option                  =     CG coord. optimization
redata: Variable cell                    =     T
redata: Use continuation files for CG    =     F
redata: Max atomic displ per move        =     0.2000  Bohr
redata: Maximum number of CG moves       =      100
redata: Force tolerance                  =     0.0016  Ry/Bohr
redata: Stress tolerance                 =     1.0000  GPa
redata: ***********************************************************************
Total number of electrons:    32.000000
Total ionic charge:    32.000000
 Kpoints in:  405 . Kpoints trimmed:  365

siesta: k-grid: Number of k-points =   365
siesta: k-grid: Cutoff (effective) =    22.950 Ang
siesta: k-grid: Supercell and displacements
siesta: k-grid:    0   9   0      0.000
siesta: k-grid:    0   0   9      0.000
siesta: k-grid:    9   0   0      0.000
Naive supercell factors:     5    5    5

superc: Internal auxiliary supercell:     5 x     5 x     5  =     125
superc: Number of atoms, orbitals, and projectors:   1000  13000  16000

* Maximum dynamic memory allocated =     2 MB

siesta:                 ==============================
                            Begin CG move =      0
                        ==============================

outcoor: Atomic coordinates (Ang):                          
    0.00000000    0.00000000    0.00000000   1       1  Si
    1.36000000    1.36000000    1.36000000   1       2  Si
    2.72000000    2.72000000    0.00000000   1       3  Si
    4.08000000    4.08000000    1.36000000   1       4  Si
    2.72000000    0.00000000    2.72000000   1       5  Si
    4.08000000    1.36000000    4.08000000   1       6  Si
    0.00000000    2.72000000    2.72000000   1       7  Si
    1.36000000    4.08000000    4.08000000   1       8  Si

superc: Internal auxiliary supercell:     5 x     5 x     5  =     125
superc: Number of atoms, orbitals, and projectors:   1000  13000  16000

outcell: Unit cell vectors (Ang):
        5.100000    0.000000    0.000000
        0.000000    5.100000    0.000000
        0.000000    0.000000    5.100000

outcell: Cell vector modules (Ang)   :    5.100000    5.100000    5.100000
outcell: Cell angles (23,13,12) (deg):     90.0000     90.0000     90.0000
outcell: Cell volume (Ang**3)        :    132.6510
New_DM. Step:     1
Initializing Density Matrix...

iodm: Reading Density Matrix from files

InitMesh: MESH =    32 x    32 x    32 =       32768
InitMesh: Mesh cutoff (required, used) =   100.000   108.808 Ry

* Maximum dynamic memory allocated =    82 MB

stepf: Fermi-Dirac step function

siesta: Program's energy decomposition (eV):
siesta: Ebs     =      -367.715915
siesta: Eions   =      1510.441798
siesta: Ena     =       455.130393
siesta: Ekin    =       352.978671
siesta: Enl     =       137.200786
siesta: DEna    =        -0.422105
siesta: DUscf   =         1.716924
siesta: DUext   =         0.000000
siesta: Exc     =      -460.689014
siesta: eta*DQ  =         0.000000
siesta: Emadel  =         0.000000
siesta: Emeta   =         0.000000
siesta: Emolmec =         0.000000
siesta: Ekinion =         0.000000
siesta: Eharris =     -1024.668062
siesta: Etot    =     -1024.526142
siesta: FreeEng =     -1024.526142

siesta: iscf   Eharris(eV)      E_KS(eV)   FreeEng(eV)   dDmax  Ef(eV)
siesta:    1    -1024.6681    -1024.5261    -1024.5261  0.0046 -5.6004
timer: Routine,Calls,Time,% = IterSCF        1      45.061  98.06
elaps: Routine,Calls,Wall,% = IterSCF        1      45.191  98.07
siesta:    2    -1024.6681    -1024.6679    -1024.6697  0.0015 -5.5950
siesta:    3    -1024.6679    -1024.6490    -1024.6509  0.0008 -5.5971

siesta: E_KS(eV) =            -1024.6634

siesta: E_KS - E_eggbox =     -1024.6634

siesta: Atomic forces (eV/Ang):
----------------------------------------
   Tot   -0.001094   -0.001102   -0.001109
----------------------------------------
   Max    3.964772
   Res    2.648990    sqrt( Sum f_i^2 / 3N )
----------------------------------------
   Max    3.964772    constrained

Stress-tensor-Voigt (kbar):     -372.11     -372.11     -372.11      102.94      102.94      102.94
(Free)E + p*V (eV/cell)     -993.8574
Target enthalpy (eV/cell)    -1024.6653

siesta: Stress tensor (static) (eV/Ang**3):
        -0.232248    0.064247    0.064247
         0.064247   -0.232248    0.064247
         0.064247    0.064247   -0.232248

siesta: Pressure (static):        372.10602898  kBar

siesta: Stress tensor (total) (eV/Ang**3):
        -0.232248    0.064247    0.064247
         0.064247   -0.232248    0.064247
         0.064247    0.064247   -0.232248

siesta: Pressure (total):        372.10602898  kBar

mulliken: Mulliken Atomic and Orbital Populations:

Species: Si                  
Atom  Qatom  Qorb
               3s      3s      3py     3pz     3px     3py     3pz     3px     
               3Pdxy   3Pdyz   3Pdz2   3Pdxz   3Pdx2-y2
   1  4.234   0.234   0.818   0.066   0.066   0.066   0.717   0.717   0.717
              0.179   0.179   0.147   0.179   0.147
   2  3.867   0.630   0.593   0.070   0.070   0.070   0.621   0.621   0.621
              0.136   0.136   0.081   0.136   0.081
   3  3.923   0.500   0.654   0.019   0.116   0.019   0.677   0.620   0.677
              0.157   0.144   0.085   0.144   0.108
   4  4.044   0.378   0.722   0.079  -0.032   0.079   0.679   0.742   0.679
              0.157   0.162   0.137   0.162   0.101
   5  3.923   0.500   0.654   0.116   0.019   0.019   0.620   0.677   0.677
              0.144   0.144   0.103   0.157   0.091
   6  4.044   0.378   0.722  -0.032   0.079   0.079   0.742   0.679   0.679
              0.162   0.162   0.110   0.157   0.128
   7  3.923   0.500   0.654   0.019   0.019   0.116   0.677   0.677   0.620
              0.144   0.157   0.103   0.144   0.091
   8  4.044   0.378   0.722   0.079   0.079  -0.032   0.679   0.679   0.742
              0.162   0.157   0.110   0.162   0.128

mulliken: Qtot =       32.000

cgvc: No target stress found, assuming hydrostatic MD.TargetPressure.

cgvc: Target stress (kBar)
cgvc:        -0.000       0.000       0.000
cgvc:         0.000      -0.000       0.000
cgvc:         0.000       0.000      -0.000

* Maximum dynamic memory allocated =    83 MB

siesta:                 ==============================
                            Begin CG move =      1
                        ==============================

outcoor: Atomic coordinates (Ang):                          
    0.01885792    0.01885787    0.01885787   1       1  Si
    1.36765809    1.36765810    1.36765810   1       2  Si
    2.73184705    2.73184707    0.00642335   1       3  Si
    4.07492045    4.07492046    1.36925763   1       4  Si
    2.73184706    0.00642332    2.73184711   1       5  Si
    4.07492056    1.36925766    4.07492050   1       6  Si
    0.00642330    2.73184703    2.73184708   1       7  Si
    1.36925766    4.07492054    4.07492051   1       8  Si
 Kpoints in:  405 . Kpoints trimmed:  365

siesta: k-grid: Number of k-points =   365
siesta: k-grid: Cutoff (effective) =    23.126 Ang
siesta: k-grid: Supercell and displacements
siesta: k-grid:    9   0   0      0.000
siesta: k-grid:    0   9   0      0.000
siesta: k-grid:    0   0   9      0.000
Naive supercell factors:     5    5    5

superc: Internal auxiliary supercell:     5 x     5 x     5  =     125
superc: Number of atoms, orbitals, and projectors:   1000  13000  16000

outcell: Unit cell vectors (Ang):
        5.138991   -0.010786   -0.010786
       -0.010786    5.138991   -0.010786
       -0.010786   -0.010786    5.138991

outcell: Cell vector modules (Ang)   :    5.139013    5.139013    5.139013
outcell: Cell angles (23,13,12) (deg):     90.2403     90.2403     90.2403
outcell: Cell volume (Ang**3)        :    135.7150
New_DM. Step:     2
Re-using DM from previous geometry...
Re-using DM without extrapolation (not allowed)
Density Matrix sparsity pattern changed.

InitMesh: MESH =    32 x    32 x    32 =       32768
InitMesh: Mesh cutoff (required, used) =   100.000   107.166 Ry

siesta: iscf   Eharris(eV)      E_KS(eV)   FreeEng(eV)   dDmax  Ef(eV)
siesta:    1    -1026.3415    -1025.0067    -1025.0086  0.0570 -5.5706
siesta:    2    -1026.3655    -1026.3160    -1026.3173  0.0312 -5.5242
siesta:    3    -1026.3327    -1026.2552    -1026.2565  0.0055 -5.5497
siesta:    4    -1026.3324    -1026.3145    -1026.3157  0.0006 -5.5525

siesta: E_KS(eV) =            -1026.3238

siesta: Atomic forces (eV/Ang):
----------------------------------------
   Tot   -0.011159   -0.011155   -0.011130
----------------------------------------
   Max    2.954228
   Res    2.029785    sqrt( Sum f_i^2 / 3N )
----------------------------------------
   Max    2.954228    constrained

Stress-tensor-Voigt (kbar):     -310.01     -310.01     -310.01       70.33       70.33       70.33
(Free)E + p*V (eV/cell)    -1000.0651
Target enthalpy (eV/cell)    -1026.3251

siesta: Stress tensor (static) (eV/Ang**3):
        -0.193494    0.043897    0.043897
         0.043897   -0.193494    0.043897
         0.043897    0.043897   -0.193494

siesta: Pressure (static):        310.01422442  kBar

siesta: Stress tensor (total) (eV/Ang**3):
        -0.193494    0.043897    0.043897
         0.043897   -0.193494    0.043897
         0.043897    0.043897   -0.193494

siesta: Pressure (total):        310.01422442  kBar

mulliken: Mulliken Atomic and Orbital Populations:

Species: Si                  
Atom  Qatom  Qorb
               3s      3s      3py     3pz     3px     3py     3pz     3px     
               3Pdxy   3Pdyz   3Pdz2   3Pdxz   3Pdx2-y2
   1  4.157   0.308   0.764   0.059   0.059   0.059   0.710   0.710   0.710
              0.172   0.172   0.130   0.172   0.130
   2  3.887   0.631   0.587   0.091   0.091   0.091   0.611   0.611   0.611
              0.134   0.134   0.080   0.134   0.080
   3  3.949   0.517   0.640   0.049   0.125   0.049   0.663   0.617   0.663
              0.153   0.143   0.085   0.143   0.103
   4  4.036   0.411   0.699   0.094  -0.013   0.094   0.664   0.728   0.664
              0.153   0.159   0.127   0.159   0.097
   5  3.949   0.517   0.640   0.125   0.049   0.049   0.617   0.663   0.663
              0.143   0.143   0.099   0.153   0.089
   6  4.036   0.411   0.699  -0.013   0.094   0.094   0.728   0.664   0.664
              0.159   0.159   0.104   0.153   0.120
   7  3.949   0.517   0.640   0.049   0.049   0.125   0.663   0.663   0.617
              0.143   0.153   0.099   0.143   0.089
   8  4.036   0.411   0.699   0.094   0.094  -0.013   0.664   0.664   0.728
              0.159   0.153   0.104   0.159   0.120

mulliken: Qtot =       32.000

* Maximum dynamic memory allocated =    94 MB

siesta:                 ==============================
                            Begin CG move =      2
                        ==============================

outcoor: Atomic coordinates (Ang):                          
    0.04929762    0.04929747    0.04929747   1       1  Si
    1.37995370    1.37995373    1.37995373   1       2  Si
    2.75057366    2.75057371    0.01732142   1       3  Si
    4.06608747    4.06608749    1.38500808   1       4  Si
    2.75057368    0.01732134    2.75057382   1       5  Si
    4.06608774    1.38500818    4.06608760   1       6  Si
    0.01732130    2.75057362    2.75057374   1       7  Si
    1.38500818    4.06608769    4.06608762   1       8  Si
 Kpoints in:  405 . Kpoints trimmed:  365

siesta: k-grid: Number of k-points =   365
siesta: k-grid: Cutoff (effective) =    23.407 Ang
siesta: k-grid: Supercell and displacements
siesta: k-grid:    9   0   0      0.000
siesta: k-grid:    0   9   0      0.000
siesta: k-grid:    0   0   9      0.000
Naive supercell factors:     5    5    5

superc: Internal auxiliary supercell:     5 x     5 x     5  =     125
superc: Number of atoms, orbitals, and projectors:   1000  13000  16000

outcell: Unit cell vectors (Ang):
        5.201376   -0.028044   -0.028044
       -0.028044    5.201376   -0.028044
       -0.028044   -0.028044    5.201376

outcell: Cell vector modules (Ang)   :    5.201527    5.201527    5.201527
outcell: Cell angles (23,13,12) (deg):     90.6161     90.6161     90.6161
outcell: Cell volume (Ang**3)        :    140.7073
New_DM. Step:     3
Re-using DM from previous geometry...
Re-using DM without extrapolation (not allowed)
Density Matrix sparsity pattern changed.

InitMesh: MESH =    32 x    32 x    32 =       32768
InitMesh: Mesh cutoff (required, used) =   100.000   104.626 Ry

siesta: iscf   Eharris(eV)      E_KS(eV)   FreeEng(eV)   dDmax  Ef(eV)
siesta:    1    -1028.2841    -1026.3465    -1026.3478  0.0820 -5.4236
siesta:    2    -1028.3867    -1028.1788    -1028.1798  0.0622 -5.3677
siesta:    3    -1028.2493    -1028.0218    -1028.0225  0.0137 -5.3986
siesta:    4    -1028.2484    -1028.2121    -1028.2130  0.0005 -5.4019

siesta: E_KS(eV) =            -1028.2238

siesta: Atomic forces (eV/Ang):
----------------------------------------
   Tot   -0.003138   -0.003146   -0.003178
----------------------------------------
   Max    1.988713
   Res    1.225154    sqrt( Sum f_i^2 / 3N )
----------------------------------------
   Max    1.988713    constrained

Stress-tensor-Voigt (kbar):     -228.49     -228.49     -228.49       26.83       26.83       26.83
(Free)E + p*V (eV/cell)    -1008.1586
Target enthalpy (eV/cell)    -1028.2247

siesta: Stress tensor (static) (eV/Ang**3):
        -0.142609    0.016748    0.016748
         0.016748   -0.142609    0.016748
         0.016748    0.016748   -0.142609

siesta: Pressure (static):        228.48702219  kBar

siesta: Stress tensor (total) (eV/Ang**3):
        -0.142609    0.016748    0.016748
         0.016748   -0.142609    0.016748
         0.016748    0.016748   -0.142609

siesta: Pressure (total):        228.48702219  kBar

mulliken: Mulliken Atomic and Orbital Populations:

Species: Si                  
Atom  Qatom  Qorb
               3s      3s      3py     3pz     3px     3py     3pz     3px     
               3Pdxy   3Pdyz   3Pdz2   3Pdxz   3Pdx2-y2
   1  4.067   0.402   0.703   0.077   0.077   0.077   0.680   0.680   0.680
              0.158   0.158   0.109   0.158   0.109
   2  3.929   0.624   0.585   0.123   0.123   0.123   0.599   0.599   0.599
              0.132   0.132   0.078   0.132   0.078
   3  3.979   0.531   0.630   0.088   0.135   0.088   0.642   0.614   0.642
              0.147   0.140   0.085   0.140   0.096
   4  4.022   0.454   0.671   0.117   0.020   0.117   0.642   0.701   0.642
              0.147   0.154   0.112   0.154   0.091
   5  3.979   0.531   0.630   0.135   0.088   0.088   0.614   0.642   0.642
              0.140   0.140   0.093   0.147   0.087
   6  4.022   0.454   0.671   0.020   0.117   0.117   0.701   0.643   0.642
              0.154   0.154   0.096   0.147   0.107
   7  3.979   0.531   0.630   0.088   0.088   0.135   0.642   0.642   0.614
              0.140   0.147   0.093   0.140   0.087
   8  4.022   0.454   0.671   0.117   0.117   0.020   0.642   0.642   0.701
              0.154   0.147   0.096   0.154   0.107

mulliken: Qtot =       32.000

* Maximum dynamic memory allocated =    94 MB

siesta:                 ==============================
                            Begin CG move =      3
                        ==============================

outcoor: Atomic coordinates (Ang):                          
    0.09868471    0.09868441    0.09868441   1       1  Si
    1.39973590    1.39973596    1.39973596   1       2  Si
    2.77995085    2.77995093    0.03634737   1       3  Si
    4.05014810    4.05014814    1.41261075   1       4  Si
    2.77995088    0.03634719    2.77995117   1       5  Si
    4.05014864    1.41261095    4.05014834   1       6  Si
    0.03634712    2.77995075    2.77995100   1       7  Si
    1.41261095    4.05014854    4.05014839   1       8  Si
 Kpoints in:  256 . Kpoints trimmed:  256

siesta: k-grid: Number of k-points =   256
siesta: k-grid: Cutoff (effective) =    21.207 Ang
siesta: k-grid: Supercell and displacements
siesta: k-grid:    8   0   0      0.500
siesta: k-grid:    0   8   0      0.500
siesta: k-grid:    0   0   8      0.500
Naive supercell factors:     5    5    5

superc: Internal auxiliary supercell:     5 x     5 x     5  =     125
superc: Number of atoms, orbitals, and projectors:   1000  13000  16000

outcell: Unit cell vectors (Ang):
        5.301191   -0.055656   -0.055656
       -0.055656    5.301191   -0.055656
       -0.055656   -0.055656    5.301192

outcell: Cell vector modules (Ang)   :    5.301776    5.301776    5.301776
outcell: Cell angles (23,13,12) (deg):     91.1966     91.1966     91.1966
outcell: Cell volume (Ang**3)        :    148.9278
New_DM. Step:     4
Re-using DM from previous geometry...
Re-using DM without extrapolation (not allowed)
Density Matrix sparsity pattern changed.

InitMesh: MESH =    32 x    32 x    32 =       32768
InitMesh: Mesh cutoff (required, used) =   100.000   100.773 Ry

siesta: iscf   Eharris(eV)      E_KS(eV)   FreeEng(eV)   dDmax  Ef(eV)
siesta:    1    -1029.8935    -1027.2324    -1027.2333  0.0828 -5.3500
siesta:    2    -1030.3407    -1029.4247    -1029.4247  0.1073 -5.3602
siesta:    3    -1029.7374    -1029.1039    -1029.1040  0.0318 -5.3388
siesta:    4    -1029.7349    -1029.6320    -1029.6320  0.0019 -5.3420
siesta:    5    -1029.7348    -1029.6636    -1029.6636  0.0011 -5.3413
siesta:    6    -1029.7348    -1029.7196    -1029.7196  0.0005 -5.3402

siesta: E_KS(eV) =            -1029.7308

siesta: Atomic forces (eV/Ang):
----------------------------------------
   Tot    0.000906    0.000915    0.000945
----------------------------------------
   Max    0.894437
   Res    0.594977    sqrt( Sum f_i^2 / 3N )
----------------------------------------
   Max    0.894437    constrained

Stress-tensor-Voigt (kbar):     -136.77     -136.77     -136.77      -23.13      -23.13      -23.13
(Free)E + p*V (eV/cell)    -1017.0180
Target enthalpy (eV/cell)    -1029.7308

siesta: Stress tensor (static) (eV/Ang**3):
        -0.085362   -0.014438   -0.014438
        -0.014438   -0.085362   -0.014438
        -0.014438   -0.014438   -0.085362

siesta: Pressure (static):        136.76603916  kBar

siesta: Stress tensor (total) (eV/Ang**3):
        -0.085362   -0.014438   -0.014438
        -0.014438   -0.085362   -0.014438
        -0.014438   -0.014438   -0.085362

siesta: Pressure (total):        136.76603916  kBar

mulliken: Mulliken Atomic and Orbital Populations:

Species: Si                  
Atom  Qatom  Qorb
               3s      3s      3py     3pz     3px     3py     3pz     3px     
               3Pdxy   3Pdyz   3Pdz2   3Pdxz   3Pdx2-y2
   1  3.998   0.553   0.617   0.146   0.146   0.146   0.604   0.604   0.604
              0.136   0.136   0.085   0.136   0.085
   2  3.979   0.616   0.584   0.164   0.164   0.164   0.581   0.581   0.581
              0.130   0.130   0.078   0.130   0.078
   3  4.000   0.541   0.624   0.147   0.139   0.147   0.604   0.610   0.604
              0.137   0.137   0.086   0.137   0.085
   4  4.008   0.520   0.635   0.154   0.100   0.154   0.605   0.638   0.605
              0.138   0.141   0.093   0.141   0.084
   5  4.000   0.541   0.624   0.139   0.147   0.147   0.610   0.604   0.604
              0.137   0.137   0.085   0.137   0.086
   6  4.008   0.520   0.635   0.100   0.154   0.154   0.638   0.605   0.605
              0.141   0.141   0.086   0.138   0.090
   7  4.000   0.541   0.624   0.147   0.147   0.139   0.604   0.604   0.610
              0.137   0.137   0.085   0.137   0.086
   8  4.008   0.520   0.635   0.154   0.154   0.100   0.605   0.605   0.638
              0.141   0.138   0.086   0.141   0.090

mulliken: Qtot =       32.000

* Maximum dynamic memory allocated =    94 MB

siesta:                 ==============================
                            Begin CG move =      4
                        ==============================

outcoor: Atomic coordinates (Ang):                          
    0.15304440    0.15304392    0.15304393   1       1  Si
    1.42128188    1.42128198    1.42128198   1       2  Si
    2.81091163    2.81091176    0.05912548   1       3  Si
    4.03040672    4.03040679    1.44579085   1       4  Si
    2.81091168    0.05912520    2.81091213   1       5  Si
    4.03040756    1.44579117    4.03040707   1       6  Si
    0.05912509    2.81091148    2.81091187   1       7  Si
    1.44579117    4.03040740    4.03040717   1       8  Si
 Kpoints in:  256 . Kpoints trimmed:  256

siesta: k-grid: Number of k-points =   256
siesta: k-grid: Cutoff (effective) =    21.642 Ang
siesta: k-grid: Supercell and displacements
siesta: k-grid:    8   0   0      0.500
siesta: k-grid:    0   8   0      0.500
siesta: k-grid:    0   0   8      0.500
Naive supercell factors:     5    5    5

superc: Internal auxiliary supercell:     5 x     5 x     5  =     125
superc: Number of atoms, orbitals, and projectors:   1000  13000  16000

outcell: Unit cell vectors (Ang):
        5.409143   -0.085519   -0.085519
       -0.085519    5.409143   -0.085519
       -0.085519   -0.085519    5.409144

outcell: Cell vector modules (Ang)   :    5.410495    5.410495    5.410496
outcell: Cell angles (23,13,12) (deg):     91.7968     91.7968     91.7968
outcell: Cell volume (Ang**3)        :    158.1453
New_DM. Step:     5
Re-using DM from previous geometry...
Re-using DM without extrapolation (not allowed)
Density Matrix sparsity pattern changed.

InitMesh: MESH =    36 x    36 x    36 =       46656
InitMesh: Mesh cutoff (required, used) =   100.000   122.607 Ry

siesta: iscf   Eharris(eV)      E_KS(eV)   FreeEng(eV)   dDmax  Ef(eV)
siesta:    1    -1029.8976    -1027.8342    -1027.8342  0.0664 -5.2129
siesta:    2    -1030.7130    -1029.0739    -1029.0739  0.1069 -5.2573
siesta:    3    -1029.6204    -1028.8983    -1028.8991  0.0344 -5.2441
siesta:    4    -1029.6195    -1029.4514    -1029.4516  0.0036 -5.2471
siesta:    5    -1029.6193    -1029.5196    -1029.5197  0.0018 -5.2470
siesta:    6    -1029.6193    -1029.5843    -1029.5844  0.0005 -5.2467

siesta: E_KS(eV) =            -1029.5991

siesta: Atomic forces (eV/Ang):
----------------------------------------
   Tot    0.000433    0.000445    0.000417
----------------------------------------
   Max    1.800020
   Res    1.255202    sqrt( Sum f_i^2 / 3N )
----------------------------------------
   Max    1.800020    constrained

Stress-tensor-Voigt (kbar):      -75.38      -75.38      -75.38      -60.53      -60.53      -60.53
(Free)E + p*V (eV/cell)    -1022.1590
Target enthalpy (eV/cell)    -1029.5992

siesta: Stress tensor (static) (eV/Ang**3):
        -0.047046   -0.037781   -0.037781
        -0.037781   -0.047046   -0.037781
        -0.037781   -0.037781   -0.047046

siesta: Pressure (static):         75.37738075  kBar

siesta: Stress tensor (total) (eV/Ang**3):
        -0.047046   -0.037781   -0.037781
        -0.037781   -0.047046   -0.037781
        -0.037781   -0.037781   -0.047046

siesta: Pressure (total):         75.37738075  kBar

mulliken: Mulliken Atomic and Orbital Populations:

Species: Si                  
Atom  Qatom  Qorb
               3s      3s      3py     3pz     3px     3py     3pz     3px     
               3Pdxy   3Pdyz   3Pdz2   3Pdxz   3Pdx2-y2
   1  4.009   0.701   0.545   0.251   0.251   0.251   0.509   0.509   0.509
              0.115   0.115   0.067   0.115   0.067
   2  4.003   0.576   0.608   0.193   0.193   0.193   0.565   0.565   0.565
              0.129   0.129   0.079   0.129   0.079
   3  4.001   0.539   0.625   0.202   0.129   0.202   0.564   0.610   0.564
              0.129   0.135   0.091   0.135   0.075
   4  3.995   0.579   0.604   0.192   0.192   0.192   0.565   0.566   0.565
              0.128   0.127   0.080   0.127   0.078
   5  4.001   0.539   0.625   0.129   0.202   0.202   0.610   0.564   0.564
              0.135   0.135   0.079   0.129   0.087
   6  3.995   0.579   0.604   0.192   0.192   0.192   0.566   0.565   0.565
              0.127   0.127   0.079   0.128   0.079
   7  4.001   0.539   0.625   0.202   0.202   0.129   0.564   0.564   0.610
              0.135   0.129   0.079   0.135   0.087
   8  3.995   0.579   0.604   0.192   0.192   0.192   0.565   0.565   0.566
              0.127   0.128   0.079   0.127   0.079

mulliken: Qtot =       32.000

* Maximum dynamic memory allocated =    94 MB

siesta:                 ==============================
                            Begin CG move =      5
                        ==============================

outcoor: Atomic coordinates (Ang):                          
    0.12686355    0.12686315    0.12686316   1       1  Si
    1.41093390    1.41093398    1.41093399   1       2  Si
    2.79617532    2.79617543    0.04792103   1       3  Si
    4.04019456    4.04019462    1.42945403   1       4  Si
    2.79617536    0.04792080    2.79617574   1       5  Si
    4.04019526    1.42945429    4.04019486   1       6  Si
    0.04792070    2.79617520    2.79617552   1       7  Si
    1.42945429    4.04019512    4.04019493   1       8  Si
 Kpoints in:  256 . Kpoints trimmed:  256

siesta: k-grid: Number of k-points =   256
siesta: k-grid: Cutoff (effective) =    21.433 Ang
siesta: k-grid: Supercell and displacements
siesta: k-grid:    8   0   0      0.500
siesta: k-grid:    0   8   0      0.500
siesta: k-grid:    0   0   8      0.500
Naive supercell factors:     5    5    5

superc: Internal auxiliary supercell:     5 x     5 x     5  =     125
superc: Number of atoms, orbitals, and projectors:   1000  13000  16000

outcell: Unit cell vectors (Ang):
        5.357395   -0.071204   -0.071204
       -0.071204    5.357395   -0.071204
       -0.071204   -0.071204    5.357395

outcell: Cell vector modules (Ang)   :    5.358341    5.358341    5.358342
outcell: Cell angles (23,13,12) (deg):     91.5125     91.5125     91.5125
outcell: Cell volume (Ang**3)        :    153.6841
New_DM. Step:     6
Re-using DM from previous geometry...
Re-using DM without extrapolation (not allowed)
Density Matrix sparsity pattern changed.

InitMesh: MESH =    36 x    36 x    36 =       46656
InitMesh: Mesh cutoff (required, used) =   100.000   124.930 Ry

siesta: iscf   Eharris(eV)      E_KS(eV)   FreeEng(eV)   dDmax  Ef(eV)
siesta:    1    -1029.9171    -1030.4773    -1030.4774  0.0268 -5.3066
siesta:    2    -1030.0780    -1029.7464    -1029.7464  0.0594 -5.2981
siesta:    3    -1029.8589    -1029.9915    -1029.9915  0.0140 -5.2991
siesta:    4    -1029.8585    -1029.8315    -1029.8315  0.0020 -5.2977
siesta:    5    -1029.8585    -1029.8378    -1029.8378  0.0012 -5.2973
siesta:    6    -1029.8584    -1029.8526    -1029.8526  0.0003 -5.2969

siesta: E_KS(eV) =            -1029.8556

siesta: Atomic forces (eV/Ang):
----------------------------------------
   Tot   -0.011873   -0.011866   -0.011867
----------------------------------------
   Max    1.119777
   Res    0.858945    sqrt( Sum f_i^2 / 3N )
----------------------------------------
   Max    1.119777    constrained

Stress-tensor-Voigt (kbar):     -100.40     -100.40     -100.40      -44.13      -44.13      -44.13
(Free)E + p*V (eV/cell)    -1020.2255
Target enthalpy (eV/cell)    -1029.8556

siesta: Stress tensor (static) (eV/Ang**3):
        -0.062662   -0.027543   -0.027542
        -0.027543   -0.062662   -0.027542
        -0.027542   -0.027542   -0.062662

siesta: Pressure (static):        100.39614476  kBar

siesta: Stress tensor (total) (eV/Ang**3):
        -0.062662   -0.027543   -0.027542
        -0.027543   -0.062662   -0.027542
        -0.027542   -0.027542   -0.062662

siesta: Pressure (total):        100.39614476  kBar

mulliken: Mulliken Atomic and Orbital Populations:

Species: Si                  
Atom  Qatom  Qorb
               3s      3s      3py     3pz     3px     3py     3pz     3px     
               3Pdxy   3Pdyz   3Pdz2   3Pdxz   3Pdx2-y2
   1  3.990   0.630   0.579   0.195   0.195   0.195   0.557   0.557   0.557
              0.125   0.125   0.075   0.125   0.075
   2  3.991   0.599   0.594   0.182   0.182   0.182   0.570   0.570   0.570
              0.129   0.129   0.078   0.129   0.078
   3  4.004   0.542   0.622   0.179   0.135   0.179   0.582   0.611   0.582
              0.133   0.136   0.088   0.136   0.080
   4  4.002   0.555   0.616   0.174   0.151   0.174   0.584   0.599   0.584
              0.132   0.134   0.085   0.134   0.081
   5  4.004   0.542   0.622   0.135   0.179   0.179   0.611   0.582   0.582
              0.136   0.136   0.082   0.133   0.086
   6  4.002   0.555   0.616   0.151   0.174   0.174   0.599   0.584   0.584
              0.134   0.134   0.082   0.132   0.084
   7  4.004   0.542   0.622   0.179   0.179   0.135   0.582   0.582   0.611
              0.136   0.133   0.082   0.136   0.086
   8  4.002   0.555   0.616   0.174   0.174   0.151   0.584   0.584   0.599
              0.134   0.132   0.082   0.134   0.084

mulliken: Qtot =       32.000

cgvc: Finished line minimization    1.  Mean atomic displacement =    0.1582

* Maximum dynamic memory allocated =    94 MB

siesta:                 ==============================
                            Begin CG move =      6
                        ==============================

outcoor: Atomic coordinates (Ang):                          
    0.10630513    0.10630490    0.10630488   1       1  Si
    1.49004792    1.49004792    1.49004855   1       2  Si
    2.82500632    2.82500633    0.10178725   1       3  Si
    4.17878455    4.17878480    1.49128964   1       4  Si
    2.82500654    0.10178732    2.82500681   1       5  Si
    4.17878485    1.49129024    4.17878459   1       6  Si
    0.10178728    2.82500651    2.82500671   1       7  Si
    1.49129013    4.17878456    4.17878439   1       8  Si
 Kpoints in:  256 . Kpoints trimmed:  256

siesta: k-grid: Number of k-points =   256
siesta: k-grid: Cutoff (effective) =    21.863 Ang
siesta: k-grid: Supercell and displacements
siesta: k-grid:    8   0   0      0.500
siesta: k-grid:    0   8   0      0.500
siesta: k-grid:    0   0   8      0.500
Naive supercell factors:     5    5    5

superc: Internal auxiliary supercell:     5 x     5 x     5  =     125
superc: Number of atoms, orbitals, and projectors:   1000  13000  16000

outcell: Unit cell vectors (Ang):
        5.465347   -0.045553   -0.045553
       -0.045553    5.465347   -0.045553
       -0.045553   -0.045553    5.465347

outcell: Cell vector modules (Ang)   :    5.465727    5.465727    5.465727
outcell: Cell angles (23,13,12) (deg):     90.9510     90.9510     90.9510
outcell: Cell volume (Ang**3)        :    163.2158
New_DM. Step:     7
Re-using DM from previous geometry...
Re-using DM without extrapolation (not allowed)
Density Matrix sparsity pattern changed.

InitMesh: MESH =    36 x    36 x    36 =       46656
InitMesh: Mesh cutoff (required, used) =   100.000   119.965 Ry

siesta: iscf   Eharris(eV)      E_KS(eV)   FreeEng(eV)   dDmax  Ef(eV)
siesta:    1    -1030.5649    -1028.5469    -1028.5469  0.0631 -5.0325
siesta:    2    -1030.6559    -1030.4631    -1030.4631  0.0605 -5.0271
siesta:    3    -1030.5292    -1030.3496    -1030.3496  0.0073 -5.0370
siesta:    4    -1030.5283    -1030.5039    -1030.5039  0.0018 -5.0392
siesta:    5    -1030.5283    -1030.5149    -1030.5149  0.0011 -5.0394
siesta:    6    -1030.5283    -1030.5208    -1030.5208  0.0003 -5.0394

siesta: E_KS(eV) =            -1030.5228

siesta: Atomic forces (eV/Ang):
----------------------------------------
   Tot   -0.005814   -0.005813   -0.005815
----------------------------------------
   Max    0.643230
   Res    0.340581    sqrt( Sum f_i^2 / 3N )
----------------------------------------
   Max    0.643230    constrained

Stress-tensor-Voigt (kbar):      -26.51      -26.51      -26.51       -6.24       -6.24       -6.24
(Free)E + p*V (eV/cell)    -1027.8225
Target enthalpy (eV/cell)    -1030.5228

siesta: Stress tensor (static) (eV/Ang**3):
        -0.016545   -0.003895   -0.003895
        -0.003895   -0.016545   -0.003895
        -0.003895   -0.003895   -0.016545

siesta: Pressure (static):         26.50768528  kBar

siesta: Stress tensor (total) (eV/Ang**3):
        -0.016545   -0.003895   -0.003895
        -0.003895   -0.016545   -0.003895
        -0.003895   -0.003895   -0.016545

siesta: Pressure (total):         26.50768528  kBar

mulliken: Mulliken Atomic and Orbital Populations:

Species: Si                  
Atom  Qatom  Qorb
               3s      3s      3py     3pz     3px     3py     3pz     3px     
               3Pdxy   3Pdyz   3Pdz2   3Pdxz   3Pdx2-y2
   1  3.996   0.674   0.555   0.243   0.243   0.243   0.517   0.517   0.517
              0.117   0.117   0.068   0.117   0.068
   2  4.005   0.604   0.589   0.217   0.217   0.217   0.546   0.546   0.546
              0.125   0.125   0.075   0.125   0.075
   3  4.003   0.599   0.592   0.224   0.198   0.224   0.541   0.558   0.541
              0.123   0.126   0.078   0.126   0.073
   4  3.997   0.621   0.581   0.221   0.226   0.221   0.539   0.535   0.539
              0.123   0.122   0.073   0.122   0.074
   5  4.003   0.599   0.592   0.198   0.224   0.224   0.558   0.541   0.541
              0.126   0.126   0.074   0.123   0.077
   6  3.997   0.621   0.581   0.226   0.221   0.221   0.535   0.539   0.539
              0.122   0.122   0.074   0.123   0.073
   7  4.003   0.599   0.592   0.224   0.224   0.198   0.541   0.541   0.558
              0.126   0.123   0.074   0.126   0.077
   8  3.997   0.621   0.581   0.221   0.221   0.226   0.539   0.539   0.535
              0.122   0.123   0.074   0.122   0.073

mulliken: Qtot =       32.000

* Maximum dynamic memory allocated =    94 MB

siesta:                 ==============================
                            Begin CG move =      7
                        ==============================

outcoor: Atomic coordinates (Ang):                          
    0.08429872    0.08429864    0.08429860   1       1  Si
    1.57129713    1.57129703    1.57129831   1       2  Si
    2.85197385    2.85197375    0.15578226   1       3  Si
    4.31870490    4.31870534    1.55334526   1       4  Si
    2.85197427    0.15578263    2.85197443   1       5  Si
    4.31870478    1.55334622    4.31870466   1       6  Si
    0.15578265    2.85197439    2.85197444   1       7  Si
    1.55334598    4.31870432    4.31870417   1       8  Si
 Kpoints in:  256 . Kpoints trimmed:  256

siesta: k-grid: Number of k-points =   256
siesta: k-grid: Cutoff (effective) =    22.293 Ang
siesta: k-grid: Supercell and displacements
siesta: k-grid:    8   0   0      0.500
siesta: k-grid:    0   8   0      0.500
siesta: k-grid:    0   0   8      0.500
Naive supercell factors:     5    5    5

superc: Internal auxiliary supercell:     5 x     5 x     5  =     125
superc: Number of atoms, orbitals, and projectors:   1000  13000  16000

outcell: Unit cell vectors (Ang):
        5.573299   -0.019902   -0.019903
       -0.019902    5.573299   -0.019903
       -0.019903   -0.019903    5.573300

outcell: Cell vector modules (Ang)   :    5.573370    5.573370    5.573371
outcell: Cell angles (23,13,12) (deg):     90.4085     90.4085     90.4085
outcell: Cell volume (Ang**3)        :    173.1093
New_DM. Step:     8
Re-using DM from previous geometry...
Re-using DM without extrapolation (not allowed)
Density Matrix sparsity pattern changed.

InitMesh: MESH =    36 x    36 x    36 =       46656
InitMesh: Mesh cutoff (required, used) =   100.000   115.323 Ry

siesta: iscf   Eharris(eV)      E_KS(eV)   FreeEng(eV)   dDmax  Ef(eV)
siesta:    1    -1030.2073    -1028.7244    -1028.7244  0.0497 -4.7573
siesta:    2    -1030.3186    -1030.0801    -1030.0802  0.0706 -4.8061
siesta:    3    -1030.1607    -1029.9244    -1029.9247  0.0083 -4.7770
siesta:    4    -1030.1602    -1030.1294    -1030.1297  0.0029 -4.7786
siesta:    5    -1030.1601    -1030.1453    -1030.1456  0.0015 -4.7791
siesta:    6    -1030.1600    -1030.1513    -1030.1516  0.0004 -4.7794

siesta: E_KS(eV) =            -1030.1540

siesta: Atomic forces (eV/Ang):
----------------------------------------
   Tot    0.003908    0.003910    0.003899
----------------------------------------
   Max    1.274493
   Res    0.882731    sqrt( Sum f_i^2 / 3N )
----------------------------------------
   Max    1.274493    constrained

Stress-tensor-Voigt (kbar):       18.82       18.82       18.82       13.89       13.89       13.89
(Free)E + p*V (eV/cell)    -1032.1876
Target enthalpy (eV/cell)    -1030.1542

siesta: Stress tensor (static) (eV/Ang**3):
         0.011746    0.008671    0.008671
         0.008671    0.011746    0.008671
         0.008671    0.008671    0.011746

siesta: Pressure (static):        -18.81944362  kBar

siesta: Stress tensor (total) (eV/Ang**3):
         0.011746    0.008671    0.008671
         0.008671    0.011746    0.008671
         0.008671    0.008671    0.011746

siesta: Pressure (total):        -18.81944362  kBar

mulliken: Mulliken Atomic and Orbital Populations:

Species: Si                  
Atom  Qatom  Qorb
               3s      3s      3py     3pz     3px     3py     3pz     3px     
               3Pdxy   3Pdyz   3Pdz2   3Pdxz   3Pdx2-y2
   1  4.001   0.695   0.547   0.284   0.284   0.284   0.482   0.482   0.482
              0.110   0.110   0.064   0.110   0.064
   2  4.021   0.590   0.597   0.249   0.249   0.249   0.524   0.524   0.524
              0.122   0.122   0.075   0.122   0.075
   3  3.997   0.647   0.569   0.265   0.249   0.265   0.502   0.513   0.502
              0.115   0.116   0.071   0.116   0.067
   4  3.996   0.683   0.552   0.267   0.294   0.267   0.494   0.475   0.494
              0.115   0.111   0.063   0.111   0.067
   5  3.997   0.647   0.569   0.249   0.265   0.265   0.513   0.502   0.502
              0.116   0.116   0.068   0.115   0.070
   6  3.996   0.683   0.552   0.294   0.267   0.267   0.475   0.494   0.494
              0.111   0.111   0.066   0.115   0.064
   7  3.997   0.647   0.569   0.265   0.265   0.249   0.502   0.502   0.513
              0.116   0.115   0.068   0.116   0.070
   8  3.996   0.683   0.552   0.267   0.267   0.294   0.494   0.494   0.475
              0.111   0.115   0.066   0.111   0.064

mulliken: Qtot =       32.000

* Maximum dynamic memory allocated =    94 MB

siesta:                 ==============================
                            Begin CG move =      8
                        ==============================

outcoor: Atomic coordinates (Ang):                          
    0.10395360    0.10395338    0.10395336   1       1  Si
    1.49888721    1.49888720    1.49888790   1       2  Si
    2.82806617    2.82806617    0.10772469   1       3  Si
    4.19412176    4.19412202    1.49810991   1       4  Si
    2.82806641    0.10772479    2.82806667   1       5  Si
    4.19412201    1.49811056    4.19412176   1       6  Si
    0.10772476    2.82806640    2.82806657   1       7  Si
    1.49811043    4.19412170    4.19412153   1       8  Si
 Kpoints in:  256 . Kpoints trimmed:  256

siesta: k-grid: Number of k-points =   256
siesta: k-grid: Cutoff (effective) =    21.910 Ang
siesta: k-grid: Supercell and displacements
siesta: k-grid:    8   0   0      0.500
siesta: k-grid:    0   8   0      0.500
siesta: k-grid:    0   0   8      0.500
Naive supercell factors:     5    5    5

superc: Internal auxiliary supercell:     5 x     5 x     5  =     125
superc: Number of atoms, orbitals, and projectors:   1000  13000  16000

outcell: Unit cell vectors (Ang):
        5.477230   -0.042730   -0.042730
       -0.042730    5.477230   -0.042730
       -0.042730   -0.042730    5.477231

outcell: Cell vector modules (Ang)   :    5.477564    5.477564    5.477564
outcell: Cell angles (23,13,12) (deg):     90.8904     90.8904     90.8904
outcell: Cell volume (Ang**3)        :    164.2871
New_DM. Step:     9
Re-using DM from previous geometry...
Re-using DM without extrapolation (not allowed)
Density Matrix sparsity pattern changed.

InitMesh: MESH =    36 x    36 x    36 =       46656
InitMesh: Mesh cutoff (required, used) =   100.000   119.439 Ry

siesta: iscf   Eharris(eV)      E_KS(eV)   FreeEng(eV)   dDmax  Ef(eV)
siesta:    1    -1030.5653    -1031.7170    -1031.7172  0.0427 -5.0078
siesta:    2    -1030.6450    -1030.4744    -1030.4744  0.0553 -5.0147
siesta:    3    -1030.5331    -1030.6292    -1030.6292  0.0078 -5.0064
siesta:    4    -1030.5324    -1030.5133    -1030.5133  0.0026 -5.0038
siesta:    5    -1030.5323    -1030.5156    -1030.5156  0.0016 -5.0035
siesta:    6    -1030.5323    -1030.5286    -1030.5286  0.0004 -5.0033

siesta: E_KS(eV) =            -1030.5312

siesta: Atomic forces (eV/Ang):
----------------------------------------
   Tot   -0.006246   -0.006247   -0.006253
----------------------------------------
   Max    0.648412
   Res    0.384823    sqrt( Sum f_i^2 / 3N )
----------------------------------------
   Max    0.648412    constrained

Stress-tensor-Voigt (kbar):      -20.29      -20.29      -20.29       -3.38       -3.38       -3.38
(Free)E + p*V (eV/cell)    -1028.4509
Target enthalpy (eV/cell)    -1030.5312

siesta: Stress tensor (static) (eV/Ang**3):
        -0.012663   -0.002110   -0.002110
        -0.002110   -0.012663   -0.002110
        -0.002110   -0.002110   -0.012663

siesta: Pressure (static):         20.28797363  kBar

siesta: Stress tensor (total) (eV/Ang**3):
        -0.012663   -0.002110   -0.002110
        -0.002110   -0.012663   -0.002110
        -0.002110   -0.002110   -0.012663

siesta: Pressure (total):         20.28797363  kBar

mulliken: Mulliken Atomic and Orbital Populations:

Species: Si                  
Atom  Qatom  Qorb
               3s      3s      3py     3pz     3px     3py     3pz     3px     
               3Pdxy   3Pdyz   3Pdz2   3Pdxz   3Pdx2-y2
   1  3.995   0.677   0.554   0.247   0.247   0.247   0.513   0.513   0.513
              0.116   0.116   0.068   0.116   0.068
   2  4.006   0.604   0.589   0.220   0.220   0.220   0.544   0.544   0.544
              0.124   0.124   0.075   0.124   0.075
   3  4.002   0.604   0.590   0.229   0.204   0.229   0.537   0.552   0.537
              0.122   0.125   0.077   0.125   0.072
   4  3.998   0.628   0.578   0.227   0.234   0.227   0.534   0.528   0.534
              0.122   0.121   0.071   0.121   0.073
   5  4.002   0.604   0.590   0.204   0.229   0.229   0.552   0.537   0.537
              0.125   0.125   0.073   0.122   0.076
   6  3.998   0.628   0.578   0.234   0.227   0.227   0.528   0.534   0.534
              0.121   0.121   0.073   0.122   0.072
   7  4.002   0.604   0.590   0.229   0.229   0.204   0.537   0.537   0.552
              0.125   0.122   0.073   0.125   0.076
   8  3.998   0.628   0.578   0.227   0.227   0.234   0.534   0.534   0.528
              0.121   0.122   0.073   0.121   0.072

mulliken: Qtot =       32.000

cgvc: Finished line minimization    2.  Mean atomic displacement =    0.1756

* Maximum dynamic memory allocated =    94 MB

siesta:                 ==============================
                            Begin CG move =      9
                        ==============================

outcoor: Atomic coordinates (Ang):                          
    0.12089397    0.12089375    0.12089289   1       1  Si
    1.47249627    1.47249596    1.47249469   1       2  Si
    2.92411631    2.92411646    0.14335897   1       3  Si
    4.31428584    4.31428534    1.46365738   1       4  Si
    2.92411680    0.14335980    2.92411714   1       5  Si
    4.31428486    1.46365694    4.31428566   1       6  Si
    0.14335936    2.92411748    2.92411704   1       7  Si
    1.46365672    4.31428499    4.31428517   1       8  Si
 Kpoints in:  256 . Kpoints trimmed:  256

siesta: k-grid: Number of k-points =   256
siesta: k-grid: Cutoff (effective) =    22.288 Ang
siesta: k-grid: Supercell and displacements
siesta: k-grid:    8   0   0      0.500
siesta: k-grid:    0   8   0      0.500
siesta: k-grid:    0   0   8      0.500
Naive supercell factors:     5    5    5

superc: Internal auxiliary supercell:     5 x     5 x     5  =     125
superc: Number of atoms, orbitals, and projectors:   1000  13000  16000

outcell: Unit cell vectors (Ang):
        5.571980   -0.023664   -0.023665
       -0.023664    5.571980   -0.023664
       -0.023665   -0.023664    5.571980

outcell: Cell vector modules (Ang)   :    5.572081    5.572081    5.572081
outcell: Cell angles (23,13,12) (deg):     90.4856     90.4856     90.4856
outcell: Cell volume (Ang**3)        :    172.9837
New_DM. Step:    10
Re-using DM from previous geometry...
Re-using DM without extrapolation (not allowed)
Density Matrix sparsity pattern changed.

InitMesh: MESH =    36 x    36 x    36 =       46656
InitMesh: Mesh cutoff (required, used) =   100.000   115.381 Ry

siesta: iscf   Eharris(eV)      E_KS(eV)   FreeEng(eV)   dDmax  Ef(eV)
siesta:    1    -1030.7146    -1029.0591    -1029.0591  0.0489 -4.9216
siesta:    2    -1031.4564    -1030.0370    -1030.0370  0.1714 -4.9651
siesta:    3    -1030.4907    -1029.8391    -1029.8391  0.0330 -4.9373
siesta:    4    -1030.4908    -1030.3564    -1030.3564  0.0059 -4.9399
siesta:    5    -1030.4905    -1030.4172    -1030.4172  0.0023 -4.9401
siesta:    6    -1030.4905    -1030.4560    -1030.4560  0.0009 -4.9397

siesta: E_KS(eV) =            -1030.4754

siesta: Atomic forces (eV/Ang):
----------------------------------------
   Tot   -0.001963   -0.001963   -0.001958
----------------------------------------
   Max    0.885998
   Res    0.475215    sqrt( Sum f_i^2 / 3N )
----------------------------------------
   Max    0.885998    constrained

Stress-tensor-Voigt (kbar):       20.73       20.73       20.73      -13.39      -13.39      -13.39
(Free)E + p*V (eV/cell)    -1032.7135
Target enthalpy (eV/cell)    -1030.4754

siesta: Stress tensor (static) (eV/Ang**3):
         0.012938   -0.008355   -0.008355
        -0.008355    0.012938   -0.008355
        -0.008355   -0.008355    0.012938

siesta: Pressure (static):        -20.72993588  kBar

siesta: Stress tensor (total) (eV/Ang**3):
         0.012938   -0.008355   -0.008355
        -0.008355    0.012938   -0.008355
        -0.008355   -0.008355    0.012938

siesta: Pressure (total):        -20.72993588  kBar

mulliken: Mulliken Atomic and Orbital Populations:

Species: Si                  
Atom  Qatom  Qorb
               3s      3s      3py     3pz     3px     3py     3pz     3px     
               3Pdxy   3Pdyz   3Pdz2   3Pdxz   3Pdx2-y2
   1  4.007   0.590   0.597   0.238   0.238   0.238   0.530   0.530   0.530
              0.123   0.123   0.074   0.123   0.074
   2  3.997   0.671   0.557   0.265   0.265   0.265   0.500   0.500   0.500
              0.114   0.114   0.066   0.114   0.066
   3  3.999   0.684   0.551   0.268   0.300   0.268   0.495   0.473   0.495
              0.115   0.111   0.062   0.111   0.067
   4  3.999   0.659   0.563   0.264   0.261   0.264   0.503   0.505   0.503
              0.115   0.115   0.067   0.115   0.067
   5  3.999   0.684   0.551   0.300   0.268   0.268   0.473   0.495   0.495
              0.111   0.111   0.066   0.115   0.063
   6  3.999   0.659   0.563   0.261   0.264   0.264   0.505   0.503   0.503
              0.115   0.115   0.067   0.115   0.067
   7  3.999   0.684   0.551   0.268   0.268   0.300   0.495   0.495   0.473
              0.111   0.115   0.066   0.111   0.063
   8  3.999   0.659   0.563   0.264   0.264   0.261   0.503   0.503   0.505
              0.115   0.115   0.067   0.115   0.067

mulliken: Qtot =       32.000

* Maximum dynamic memory allocated =    94 MB

siesta:                 ==============================
                            Begin CG move =     10
                        ==============================

outcoor: Atomic coordinates (Ang):                          
    0.11163478    0.11163456    0.11163416   1       1  Si
    1.48716533    1.48716518    1.48716499   1       2  Si
    2.87190807    2.87190814    0.12394396   1       3  Si
    4.24915967    4.24915959    1.48265224   1       4  Si
    2.87190843    0.12394439    2.87190872   1       5  Si
    4.24915936    1.48265239    4.24915959   1       6  Si
    0.12394417    2.87190873    2.87190862   1       7  Si
    1.48265222    4.24915925    4.24915924   1       8  Si
 Kpoints in:  256 . Kpoints trimmed:  256

siesta: k-grid: Number of k-points =   256
siesta: k-grid: Cutoff (effective) =    22.084 Ang
siesta: k-grid: Supercell and displacements
siesta: k-grid:    8   0   0      0.500
siesta: k-grid:    0   8   0      0.500
siesta: k-grid:    0   0   8      0.500
Naive supercell factors:     5    5    5

superc: Internal auxiliary supercell:     5 x     5 x     5  =     125
superc: Number of atoms, orbitals, and projectors:   1000  13000  16000

outcell: Unit cell vectors (Ang):
        5.520672   -0.033988   -0.033988
       -0.033988    5.520673   -0.033988
       -0.033988   -0.033988    5.520673

outcell: Cell vector modules (Ang)   :    5.520882    5.520882    5.520882
outcell: Cell angles (23,13,12) (deg):     90.7033     90.7033     90.7033
outcell: Cell volume (Ang**3)        :    168.2389
New_DM. Step:    11
Re-using DM from previous geometry...
Re-using DM without extrapolation (not allowed)
Density Matrix sparsity pattern changed.

InitMesh: MESH =    36 x    36 x    36 =       46656
InitMesh: Mesh cutoff (required, used) =   100.000   117.550 Ry

siesta: iscf   Eharris(eV)      E_KS(eV)   FreeEng(eV)   dDmax  Ef(eV)
siesta:    1    -1030.7099    -1031.2480    -1031.2480  0.0346 -5.0069
siesta:    2    -1030.8978    -1030.5293    -1030.5293  0.0761 -4.9967
siesta:    3    -1030.6504    -1030.8086    -1030.8086  0.0160 -4.9932
siesta:    4    -1030.6502    -1030.6243    -1030.6243  0.0016 -4.9887
siesta:    5    -1030.6502    -1030.6290    -1030.6290  0.0011 -4.9891
siesta:    6    -1030.6502    -1030.6435    -1030.6435  0.0003 -4.9897

siesta: E_KS(eV) =            -1030.6474

siesta: Atomic forces (eV/Ang):
----------------------------------------
   Tot   -0.003995   -0.003995   -0.003987
----------------------------------------
   Max    0.175157
   Res    0.078065    sqrt( Sum f_i^2 / 3N )
----------------------------------------
   Max    0.175157    constrained

Stress-tensor-Voigt (kbar):        0.79        0.79        0.79       -8.85       -8.85       -8.85
(Free)E + p*V (eV/cell)    -1030.7303
Target enthalpy (eV/cell)    -1030.6474

siesta: Stress tensor (static) (eV/Ang**3):
         0.000493   -0.005522   -0.005522
        -0.005522    0.000493   -0.005522
        -0.005522   -0.005522    0.000493

siesta: Pressure (static):         -0.79002018  kBar

siesta: Stress tensor (total) (eV/Ang**3):
         0.000493   -0.005522   -0.005522
        -0.005522    0.000493   -0.005522
        -0.005522   -0.005522    0.000493

siesta: Pressure (total):         -0.79002018  kBar

mulliken: Mulliken Atomic and Orbital Populations:

Species: Si                  
Atom  Qatom  Qorb
               3s      3s      3py     3pz     3px     3py     3pz     3px     
               3Pdxy   3Pdyz   3Pdz2   3Pdxz   3Pdx2-y2
   1  4.001   0.640   0.571   0.242   0.242   0.242   0.522   0.522   0.522
              0.119   0.119   0.070   0.119   0.070
   2  3.999   0.633   0.575   0.242   0.242   0.242   0.521   0.521   0.521
              0.119   0.119   0.071   0.119   0.071
   3  4.000   0.645   0.569   0.243   0.247   0.243   0.521   0.518   0.521
              0.119   0.118   0.069   0.118   0.070
   4  4.000   0.645   0.569   0.246   0.250   0.246   0.518   0.515   0.518
              0.118   0.118   0.069   0.118   0.070
   5  4.000   0.645   0.569   0.247   0.243   0.243   0.518   0.521   0.521
              0.118   0.118   0.070   0.119   0.070
   6  4.000   0.645   0.569   0.250   0.246   0.246   0.515   0.518   0.518
              0.118   0.118   0.070   0.118   0.069
   7  4.000   0.645   0.569   0.243   0.243   0.247   0.521   0.521   0.518
              0.118   0.119   0.070   0.118   0.070
   8  4.000   0.645   0.569   0.246   0.246   0.250   0.518   0.518   0.515
              0.118   0.118   0.070   0.118   0.069

mulliken: Qtot =       32.000

cgvc: Finished line minimization    3.  Mean atomic displacement =    0.0805

* Maximum dynamic memory allocated =    94 MB

siesta:                 ==============================
                            Begin CG move =     11
                        ==============================

outcoor: Atomic coordinates (Ang):                          
    0.13425210    0.13425194    0.13425621   1       1  Si
    1.50186765    1.50186791    1.50186933   1       2  Si
    2.91661833    2.91661860    0.12529841   1       3  Si
    4.29399878    4.29399973    1.56325351   1       4  Si
    2.91661684    0.12529678    2.91661655   1       5  Si
    4.29400115    1.56325455    4.29399966   1       6  Si
    0.12529608    2.91661581    2.91661644   1       7  Si
    1.56325562    4.29400064    4.29399934   1       8  Si
 Kpoints in:  256 . Kpoints trimmed:  256

siesta: k-grid: Number of k-points =   256
siesta: k-grid: Cutoff (effective) =    22.100 Ang
siesta: k-grid: Supercell and displacements
siesta: k-grid:    0   0   8      0.500
siesta: k-grid:    8   0   0      0.500
siesta: k-grid:    0   8   0      0.500
Naive supercell factors:     5    5    5

superc: Internal auxiliary supercell:     5 x     5 x     5  =     125
superc: Number of atoms, orbitals, and projectors:   1000  13000  16000

outcell: Unit cell vectors (Ang):
        5.525104    0.010598    0.010599
        0.010598    5.525104    0.010599
        0.010599    0.010599    5.525104

outcell: Cell vector modules (Ang)   :    5.525125    5.525125    5.525125
outcell: Cell angles (23,13,12) (deg):     89.7800     89.7800     89.7800
outcell: Cell volume (Ang**3)        :    168.6618
New_DM. Step:    12
Re-using DM from previous geometry...
Re-using DM without extrapolation (not allowed)
Density Matrix sparsity pattern changed.

InitMesh: MESH =    36 x    36 x    36 =       46656
InitMesh: Mesh cutoff (required, used) =   100.000   117.337 Ry

siesta: iscf   Eharris(eV)      E_KS(eV)   FreeEng(eV)   dDmax  Ef(eV)
siesta:    1    -1030.6369    -1030.5494    -1030.5494  0.0301 -4.9967
siesta:    2    -1030.6930    -1030.5770    -1030.5770  0.0385 -5.0199
siesta:    3    -1030.6163    -1030.5850    -1030.5850  0.0071 -5.0043
siesta:    4    -1030.6161    -1030.6034    -1030.6034  0.0004 -5.0039

siesta: E_KS(eV) =            -1030.6073

siesta: Atomic forces (eV/Ang):
----------------------------------------
   Tot    0.000517    0.000517    0.000535
----------------------------------------
   Max    0.618151
   Res    0.301274    sqrt( Sum f_i^2 / 3N )
----------------------------------------
   Max    0.618151    constrained

Stress-tensor-Voigt (kbar):        1.55        1.55        1.55        5.07        5.07        5.07
(Free)E + p*V (eV/cell)    -1030.7708
Target enthalpy (eV/cell)    -1030.6073

siesta: Stress tensor (static) (eV/Ang**3):
         0.000969    0.003166    0.003166
         0.003166    0.000969    0.003166
         0.003166    0.003166    0.000969

siesta: Pressure (static):         -1.55308991  kBar

siesta: Stress tensor (total) (eV/Ang**3):
         0.000969    0.003166    0.003166
         0.003166    0.000969    0.003166
         0.003166    0.003166    0.000969

siesta: Pressure (total):         -1.55308991  kBar

mulliken: Mulliken Atomic and Orbital Populations:

Species: Si                  
Atom  Qatom  Qorb
               3s      3s      3py     3pz     3px     3py     3pz     3px     
               3Pdxy   3Pdyz   3Pdz2   3Pdxz   3Pdx2-y2
   1  3.999   0.646   0.568   0.244   0.244   0.244   0.520   0.520   0.520
              0.118   0.118   0.069   0.118   0.069
   2  3.998   0.674   0.555   0.257   0.257   0.257   0.506   0.506   0.506
              0.115   0.115   0.067   0.115   0.067
   3  4.000   0.641   0.571   0.246   0.247   0.246   0.518   0.518   0.518
              0.118   0.118   0.070   0.118   0.070
   4  4.001   0.631   0.576   0.248   0.234   0.248   0.518   0.527   0.518
              0.118   0.120   0.072   0.120   0.069
   5  4.000   0.641   0.571   0.247   0.246   0.246   0.518   0.518   0.518
              0.118   0.118   0.070   0.118   0.070
   6  4.001   0.631   0.576   0.234   0.248   0.248   0.527   0.518   0.518
              0.120   0.120   0.070   0.118   0.071
   7  4.000   0.641   0.571   0.246   0.246   0.247   0.518   0.518   0.518
              0.118   0.118   0.070   0.118   0.070
   8  4.001   0.631   0.576   0.248   0.248   0.234   0.518   0.518   0.527
              0.120   0.118   0.070   0.120   0.071

mulliken: Qtot =       32.000

* Maximum dynamic memory allocated =    94 MB

siesta:                 ==============================
                            Begin CG move =     12
                        ==============================

outcoor: Atomic coordinates (Ang):                          
    0.11862166    0.11862145    0.11862252   1       1  Si
    1.49179514    1.49179512    1.49179543   1       2  Si
    2.88591313    2.88591327    0.12431298   1       3  Si
    4.26315305    4.26315329    1.50783645   1       4  Si
    2.88591292    0.12431278    2.88591304   1       5  Si
    4.26315358    1.50783687    4.26315326   1       6  Si
    0.12431241    2.88591280    2.88591294   1       7  Si
    1.50783709    4.26315334    4.26315292   1       8  Si
 Kpoints in:  256 . Kpoints trimmed:  256

siesta: k-grid: Number of k-points =   256
siesta: k-grid: Cutoff (effective) =    22.089 Ang
siesta: k-grid: Supercell and displacements
siesta: k-grid:    8   0   0      0.500
siesta: k-grid:    0   8   0      0.500
siesta: k-grid:    0   0   8      0.500
Naive supercell factors:     5    5    5

superc: Internal auxiliary supercell:     5 x     5 x     5  =     125
superc: Number of atoms, orbitals, and projectors:   1000  13000  16000

outcell: Unit cell vectors (Ang):
        5.522056   -0.020067   -0.020067
       -0.020067    5.522056   -0.020067
       -0.020067   -0.020067    5.522056

outcell: Cell vector modules (Ang)   :    5.522129    5.522129    5.522129
outcell: Cell angles (23,13,12) (deg):     90.4157     90.4157     90.4157
outcell: Cell volume (Ang**3)        :    168.3780
New_DM. Step:    13
Re-using DM from previous geometry...
Re-using DM without extrapolation (not allowed)
Density Matrix sparsity pattern changed.

InitMesh: MESH =    36 x    36 x    36 =       46656
InitMesh: Mesh cutoff (required, used) =   100.000   117.473 Ry

siesta: iscf   Eharris(eV)      E_KS(eV)   FreeEng(eV)   dDmax  Ef(eV)
siesta:    1    -1030.6747    -1030.6726    -1030.6726  0.0308 -4.9869
siesta:    2    -1030.7008    -1030.6461    -1030.6461  0.0284 -4.9848
siesta:    3    -1030.6648    -1030.6571    -1030.6571  0.0051 -4.9848
siesta:    4    -1030.6647    -1030.6579    -1030.6579  0.0003 -4.9847

siesta: E_KS(eV) =            -1030.6600

siesta: Atomic forces (eV/Ang):
----------------------------------------
   Tot   -0.008048   -0.008034   -0.008043
----------------------------------------
   Max    0.106559
   Res    0.061124    sqrt( Sum f_i^2 / 3N )
----------------------------------------
   Max    0.106559    constrained

Stress-tensor-Voigt (kbar):        1.60        1.60        1.60       -4.35       -4.35       -4.35
(Free)E + p*V (eV/cell)    -1030.8280
Target enthalpy (eV/cell)    -1030.6600

siesta: Stress tensor (static) (eV/Ang**3):
         0.000997   -0.002718   -0.002718
        -0.002718    0.000997   -0.002718
        -0.002718   -0.002718    0.000997

siesta: Pressure (static):         -1.59793838  kBar

siesta: Stress tensor (total) (eV/Ang**3):
         0.000997   -0.002718   -0.002718
        -0.002718    0.000997   -0.002718
        -0.002718   -0.002718    0.000997

siesta: Pressure (total):         -1.59793838  kBar

mulliken: Mulliken Atomic and Orbital Populations:

Species: Si                  
Atom  Qatom  Qorb
               3s      3s      3py     3pz     3px     3py     3pz     3px     
               3Pdxy   3Pdyz   3Pdz2   3Pdxz   3Pdx2-y2
   1  4.001   0.643   0.570   0.244   0.244   0.244   0.521   0.521   0.521
              0.119   0.119   0.070   0.119   0.070
   2  3.997   0.646   0.569   0.246   0.246   0.246   0.517   0.517   0.517
              0.118   0.118   0.069   0.118   0.069
   3  3.999   0.643   0.570   0.244   0.246   0.244   0.519   0.519   0.519
              0.118   0.118   0.069   0.118   0.070
   4  4.001   0.641   0.571   0.246   0.244   0.246   0.519   0.520   0.519
              0.118   0.118   0.070   0.118   0.070
   5  3.999   0.643   0.570   0.246   0.244   0.244   0.519   0.519   0.519
              0.118   0.118   0.070   0.118   0.070
   6  4.001   0.641   0.571   0.244   0.246   0.246   0.520   0.519   0.519
              0.118   0.118   0.070   0.118   0.070
   7  3.999   0.643   0.570   0.244   0.244   0.246   0.519   0.519   0.519
              0.118   0.118   0.070   0.118   0.070
   8  4.001   0.641   0.571   0.246   0.246   0.244   0.519   0.519   0.520
              0.118   0.118   0.070   0.118   0.070

mulliken: Qtot =       32.000

cgvc: Finished line minimization    4.  Mean atomic displacement =    0.0251

* Maximum dynamic memory allocated =    94 MB

siesta:                 ==============================
                            Begin CG move =     13
                        ==============================

outcoor: Atomic coordinates (Ang):                          
    0.12620722    0.12620751    0.12620794   1       1  Si
    1.50624699    1.50624736    1.50624724   1       2  Si
    2.89723107    2.89723112    0.14069450   1       3  Si
    4.27338451    4.27338475    1.52435449   1       4  Si
    2.89723211    0.14069573    2.89723202   1       5  Si
    4.27338409    1.52435418    4.27338453   1       6  Si
    0.14069546    2.89723218    2.89723233   1       7  Si
    1.52435455    4.27338420    4.27338392   1       8  Si
 Kpoints in:  256 . Kpoints trimmed:  256

siesta: k-grid: Number of k-points =   256
siesta: k-grid: Cutoff (effective) =    22.080 Ang
siesta: k-grid: Supercell and displacements
siesta: k-grid:    8   0   0      0.500
siesta: k-grid:    0   8   0      0.500
siesta: k-grid:    0   0   8      0.500
Naive supercell factors:     5    5    5

superc: Internal auxiliary supercell:     5 x     5 x     5  =     125
superc: Number of atoms, orbitals, and projectors:   1000  13000  16000

outcell: Unit cell vectors (Ang):
        5.520030   -0.003577   -0.003576
       -0.003577    5.520030   -0.003577
       -0.003576   -0.003577    5.520030

outcell: Cell vector modules (Ang)   :    5.520032    5.520032    5.520032
outcell: Cell angles (23,13,12) (deg):     90.0742     90.0742     90.0742
outcell: Cell volume (Ang**3)        :    168.1991
New_DM. Step:    14
Re-using DM from previous geometry...
Re-using DM without extrapolation (not allowed)
Density Matrix sparsity pattern changed.

InitMesh: MESH =    36 x    36 x    36 =       46656
InitMesh: Mesh cutoff (required, used) =   100.000   117.551 Ry

siesta: iscf   Eharris(eV)      E_KS(eV)   FreeEng(eV)   dDmax  Ef(eV)
siesta:    1    -1030.6737    -1030.6872    -1030.6872  0.0033 -4.9989
siesta:    2    -1030.6745    -1030.6727    -1030.6727  0.0053 -4.9985
siesta:    3    -1030.6733    -1030.6739    -1030.6739  0.0006 -4.9983

siesta: E_KS(eV) =            -1030.6730

siesta: Atomic forces (eV/Ang):
----------------------------------------
   Tot   -0.001879   -0.001873   -0.001876
----------------------------------------
   Max    0.055314
   Res    0.032165    sqrt( Sum f_i^2 / 3N )
----------------------------------------
   Max    0.055314    constrained

Stress-tensor-Voigt (kbar):        0.50        0.50        0.50       -0.97       -0.97       -0.97
(Free)E + p*V (eV/cell)    -1030.7250
Target enthalpy (eV/cell)    -1030.6730

siesta: Stress tensor (static) (eV/Ang**3):
         0.000309   -0.000602   -0.000602
        -0.000602    0.000309   -0.000602
        -0.000602   -0.000602    0.000309

siesta: Pressure (static):         -0.49562842  kBar

siesta: Stress tensor (total) (eV/Ang**3):
         0.000309   -0.000602   -0.000602
        -0.000602    0.000309   -0.000602
        -0.000602   -0.000602    0.000309

siesta: Pressure (total):         -0.49562842  kBar

mulliken: Mulliken Atomic and Orbital Populations:

Species: Si                  
Atom  Qatom  Qorb
               3s      3s      3py     3pz     3px     3py     3pz     3px     
               3Pdxy   3Pdyz   3Pdz2   3Pdxz   3Pdx2-y2
   1  4.000   0.646   0.568   0.244   0.244   0.244   0.520   0.520   0.520
              0.118   0.118   0.070   0.118   0.070
   2  3.998   0.645   0.569   0.246   0.246   0.246   0.518   0.518   0.518
              0.118   0.118   0.069   0.118   0.069
   3  4.000   0.641   0.571   0.244   0.243   0.244   0.520   0.521   0.520
              0.118   0.119   0.070   0.119   0.070
   4  4.000   0.639   0.572   0.245   0.243   0.245   0.520   0.521   0.520
              0.118   0.119   0.070   0.119   0.070
   5  4.000   0.641   0.571   0.243   0.244   0.244   0.521   0.520   0.520
              0.119   0.119   0.070   0.118   0.070
   6  4.000   0.639   0.572   0.243   0.245   0.245   0.521   0.520   0.520
              0.119   0.119   0.070   0.118   0.070
   7  4.000   0.641   0.571   0.244   0.244   0.243   0.520   0.520   0.521
              0.119   0.118   0.070   0.119   0.070
   8  4.000   0.639   0.572   0.245   0.245   0.243   0.520   0.520   0.521
              0.119   0.118   0.070   0.119   0.070

mulliken: Qtot =       32.000

* Maximum dynamic memory allocated =    94 MB

siesta:                 ==============================
                            Begin CG move =     14
                        ==============================

outcoor: Atomic coordinates (Ang):                          
    0.13850567    0.13850673    0.13850615   1       1  Si
    1.52951077    1.52951174    1.52951094   1       2  Si
    2.91536500    2.91536490    0.16698820   1       3  Si
    4.28958808    4.28958830    1.55065730   1       4  Si
    2.91536807    0.16699174    2.91536764   1       5  Si
    4.28958613    1.55065580    4.28958777   1       6  Si
    0.16699164    2.91536842    2.91536862   1       7  Si
    1.55065642    4.28958678    4.28958672   1       8  Si
 Kpoints in:  256 . Kpoints trimmed:  256

siesta: k-grid: Number of k-points =   256
siesta: k-grid: Cutoff (effective) =    22.068 Ang
siesta: k-grid: Supercell and displacements
siesta: k-grid:    0   8   0      0.500
siesta: k-grid:    8   0   0      0.500
siesta: k-grid:    0   0   8      0.500
Naive supercell factors:     5    5    5

superc: Internal auxiliary supercell:     5 x     5 x     5  =     125
superc: Number of atoms, orbitals, and projectors:   1000  13000  16000

outcell: Unit cell vectors (Ang):
        5.516787    0.022808    0.022808
        0.022808    5.516787    0.022808
        0.022808    0.022808    5.516787

outcell: Cell vector modules (Ang)   :    5.516881    5.516881    5.516881
outcell: Cell angles (23,13,12) (deg):     89.5253     89.5253     89.5253
outcell: Cell volume (Ang**3)        :    167.8945
New_DM. Step:    15
Re-using DM from previous geometry...
Re-using DM without extrapolation (not allowed)
Density Matrix sparsity pattern changed.

InitMesh: MESH =    36 x    36 x    36 =       46656
InitMesh: Mesh cutoff (required, used) =   100.000   117.701 Ry

siesta: iscf   Eharris(eV)      E_KS(eV)   FreeEng(eV)   dDmax  Ef(eV)
siesta:    1    -1030.6645    -1030.7112    -1030.7112  0.0056 -4.9960
siesta:    2    -1030.6671    -1030.6614    -1030.6614  0.0094 -4.9966
siesta:    3    -1030.6634    -1030.6663    -1030.6663  0.0010 -4.9955
siesta:    4    -1030.6633    -1030.6624    -1030.6624  0.0002 -4.9954

siesta: E_KS(eV) =            -1030.6626

siesta: Atomic forces (eV/Ang):
----------------------------------------
   Tot    0.002982    0.002984    0.002987
----------------------------------------
   Max    0.125661
   Res    0.081307    sqrt( Sum f_i^2 / 3N )
[...]
          8.58   8.75   9.03   9.12   9.46   9.49  14.81  14.96  14.98  15.81
         15.87  15.87  15.98  16.25  16.26  16.39  16.76  16.78  17.55  18.52
         18.55  18.68  18.83  18.84  19.34  19.49  20.06  20.06  20.61  20.85
         27.82  27.86  27.94  28.61  29.29  30.54  30.54  31.29  42.72  44.72
         44.77  49.50  57.03  57.06  60.31  62.04  62.57  74.67  74.70  79.79
         85.10  85.19  90.07  95.04
 241  1 -15.26 -14.92 -14.92 -14.72 -12.09 -11.87 -11.87 -11.47  -7.76  -7.49
         -7.49  -6.99  -6.82  -6.79  -6.78  -6.48  -3.57  -3.19  -3.19  -3.19
         -2.07  -2.06  -1.83  -1.82  -1.78  -1.35  -1.33  -1.33   2.33   2.33
          2.84   3.01   3.14   3.69   4.06   4.06   4.08   4.61   4.69   4.69
          5.42   6.65   6.66   6.88   6.88   7.14   7.66   7.91   8.42   8.56
          8.57   8.74   9.04   9.12   9.49   9.49  14.82  14.98  14.99  15.78
         15.87  15.88  15.97  16.24  16.26  16.37  16.76  16.76  17.54  18.53
         18.53  18.67  18.86  18.86  19.35  19.49  20.05  20.05  20.62  20.82
         27.83  27.84  27.98  28.58  29.30  30.48  30.48  31.34  42.74  44.75
         44.75  49.53  56.79  56.80  60.37  62.32  62.56  74.67  74.68  79.69
         85.04  85.04  90.22  95.43
 242  1 -15.43 -15.01 -15.01 -14.68 -11.79 -11.40 -11.40 -10.89  -8.62  -8.26
         -8.26  -7.78  -6.93  -6.85  -6.85  -6.43  -3.15  -2.97  -2.74  -2.74
         -1.94  -1.93  -1.56  -1.54  -0.97  -0.78  -0.62  -0.62   1.20   1.20
          1.72   1.98   2.52   2.80   2.96   3.24   3.25   4.20   4.20   4.88
          5.89   7.40   7.41   7.89   7.90   8.11   8.42   8.83   9.37   9.38
          9.67   9.71   9.75  10.80  10.98  10.98  13.30  13.52  13.52  14.05
         14.71  14.71  14.97  15.21  15.46  15.81  15.86  15.87  17.83  18.51
         18.51  18.64  19.44  19.44  19.53  20.07  20.86  20.86  21.20  21.33
         27.09  27.09  27.45  27.61  28.18  33.18  33.18  37.23  41.14  41.90
         41.90  47.92  54.14  54.14  57.73  58.20  60.54  73.81  73.82  77.67
         80.84  82.86  82.90 101.84
 243  1 -15.52 -15.07 -15.07 -14.68 -11.43 -10.95 -10.95 -10.35  -9.26  -8.89
         -8.89  -8.47  -6.99  -6.90  -6.89  -6.41  -3.21  -2.70  -2.64  -2.63
         -1.40  -1.40  -1.21  -0.93  -0.20   0.01   0.01   0.08   0.38   0.38
          0.65   1.22   1.38   1.88   2.26   2.26   2.90   4.23   4.23   5.16
          6.25   7.70   7.70   8.34   8.88   8.88   9.05   9.61  10.15  10.35
         10.35  10.81  11.56  11.72  11.72  12.20  12.35  12.77  12.85  12.86
         13.42  13.73  13.73  14.21  14.60  14.82  14.83  15.29  17.65  18.45
         18.45  19.49  19.63  20.14  20.14  20.72  21.47  21.47  21.70  21.82
         25.86  26.29  26.29  26.97  27.54  35.94  35.94  42.90  46.15  46.15
         49.98  50.91  52.26  52.27  56.70  60.50  60.70  67.65  67.69  77.57
         78.17  78.32  78.33  80.50
 244  1 -15.53 -15.07 -15.07 -14.67 -11.43 -10.95 -10.95 -10.35  -9.26  -8.89
         -8.89  -8.46  -7.00  -6.90  -6.89  -6.41  -3.21  -2.70  -2.63  -2.63
         -1.40  -1.40  -1.21  -0.93  -0.20  -0.01  -0.01   0.07   0.38   0.38
          0.64   1.22   1.40   1.89   2.27   2.27   2.90   4.23   4.23   5.17
          6.25   7.70   7.70   8.33   8.88   8.89   9.05   9.60  10.14  10.37
         10.37  10.81  11.58  11.71  11.71  12.19  12.36  12.77  12.81  12.82
         13.40  13.74  13.74  14.20  14.61  14.84  14.84  15.30  17.65  18.45
         18.45  19.50  19.64  20.13  20.13  20.73  21.48  21.48  21.71  21.81
         25.86  26.30  26.30  26.96  27.55  35.96  35.96  42.89  46.24  46.25
         50.01  50.92  52.20  52.21  56.73  60.45  60.71  67.81  67.83  77.54
         78.17  78.32  78.34  80.50
 245  1 -15.44 -15.01 -15.01 -14.67 -11.79 -11.40 -11.40 -10.90  -8.63  -8.26
         -8.26  -7.77  -6.94  -6.86  -6.85  -6.42  -3.15  -2.96  -2.73  -2.73
         -1.93  -1.93  -1.55  -1.54  -0.98  -0.78  -0.63  -0.63   1.18   1.18
          1.71   1.98   2.54   2.81   2.95   3.27   3.27   4.21   4.21   4.90
          5.91   7.40   7.40   7.90   7.91   8.10   8.41   8.83   9.40   9.40
          9.64   9.72   9.76  10.78  10.95  10.95  13.28  13.50  13.50  14.08
         14.71  14.71  14.95  15.21  15.48  15.83  15.89  15.89  17.83  18.51
         18.51  18.65  19.43  19.43  19.56  20.08  20.87  20.87  21.18  21.33
         27.10  27.10  27.45  27.61  28.19  33.23  33.24  37.25  41.13  41.94
         41.95  47.90  54.17  54.17  57.74  58.31  60.51  73.98  73.98  77.71
         80.76  83.01  83.02 101.95
 246  1 -15.27 -14.92 -14.92 -14.71 -12.10 -11.87 -11.87 -11.47  -7.77  -7.49
         -7.48  -6.98  -6.83  -6.79  -6.79  -6.47  -3.56  -3.20  -3.18  -3.18
         -2.08  -2.07  -1.83  -1.81  -1.80  -1.35  -1.33  -1.33   2.31   2.31
          2.83   3.00   3.14   3.70   4.07   4.07   4.09   4.62   4.71   4.71
          5.44   6.67   6.67   6.89   6.89   7.15   7.66   7.92   8.39   8.58
          8.58   8.77   9.02   9.09   9.45   9.45  14.79  14.98  14.98  15.82
         15.86  15.87  15.97  16.24  16.25  16.39  16.79  16.79  17.57  18.53
         18.53  18.65  18.86  18.86  19.36  19.51  20.05  20.05  20.62  20.80
         27.85  27.85  27.99  28.62  29.29  30.51  30.52  31.34  42.69  44.74
         44.76  49.53  56.96  56.97  60.46  62.23  62.72  74.62  74.63  79.81
         85.17  85.18  90.09  95.66
 247  1 -15.05 -14.84 -14.84 -14.84 -12.15 -12.15 -12.15 -11.92  -6.95  -6.95
         -6.95  -6.69  -6.69  -6.69  -6.56  -6.56  -3.95  -3.65  -3.65  -3.65
         -2.01  -2.01  -2.01  -1.91  -1.91  -1.74  -1.74  -1.74   3.24   3.24
          3.24   3.46   4.46   4.46   4.46   4.53   4.53   5.51   5.51   5.51
          5.51   6.15   6.15   6.16   6.23   6.24   6.24   7.25   7.25   7.50
          7.50   7.51   8.54   8.54   8.54   8.68  16.03  16.23  16.23  16.24
         16.80  16.80  16.94  16.94  16.94  17.30  17.30  17.30  18.52  18.52
         18.52  19.16  19.16  19.16  19.38  19.39  19.39  19.78  19.78  20.63
         28.44  28.45  28.45  29.20  29.20  29.28  29.28  29.28  55.65  55.67
         55.67  58.22  66.96  66.96  66.98  67.92  67.92  67.94  79.46  79.46
        101.77 101.77 101.79 104.17
 248  1 -15.04 -14.85 -14.84 -14.84 -12.15 -12.15 -12.15 -11.92  -6.95  -6.95
         -6.94  -6.69  -6.69  -6.68  -6.57  -6.56  -3.97  -3.65  -3.65  -3.64
         -2.00  -2.00  -2.00  -1.92  -1.91  -1.75  -1.75  -1.74   3.25   3.26
          3.26   3.45   4.47   4.47   4.47   4.52   4.54   5.47   5.50   5.50
          5.53   6.13   6.13   6.14   6.22   6.23   6.23   7.24   7.27   7.52
          7.53   7.53   8.51   8.54   8.55   8.71  16.05  16.21  16.24  16.24
         16.78  16.80  16.95  16.96  16.96  17.28  17.29  17.29  18.45  18.51
         18.51  19.15  19.15  19.16  19.40  19.40  19.41  19.76  19.77  20.70
         28.39  28.39  28.44  29.13  29.20  29.32  29.32  29.33  55.64  55.65
         55.80  58.23  67.04  67.13  67.13  67.71  67.76  68.09  78.80  79.23
        101.58 101.65 101.67 103.80
 249  1 -15.26 -14.93 -14.92 -14.71 -12.10 -11.87 -11.86 -11.47  -7.77  -7.49
         -7.48  -6.99  -6.83  -6.79  -6.78  -6.48  -3.57  -3.20  -3.18  -3.17
         -2.07  -2.06  -1.84  -1.81  -1.79  -1.36  -1.33  -1.32   2.32   2.34
          2.83   3.02   3.13   3.69   4.06   4.06   4.08   4.62   4.70   4.70
          5.46   6.66   6.66   6.85   6.87   7.14   7.67   7.91   8.43   8.56
          8.58   8.75   9.03   9.12   9.46   9.49  14.81  14.96  14.98  15.81
         15.87  15.87  15.98  16.25  16.26  16.39  16.76  16.78  17.55  18.52
         18.55  18.68  18.83  18.84  19.34  19.49  20.06  20.06  20.61  20.85
         27.82  27.86  27.94  28.61  29.29  30.54  30.54  31.29  42.72  44.72
         44.77  49.50  57.03  57.06  60.31  62.04  62.57  74.67  74.70  79.79
         85.10  85.19  90.07  95.04
 250  1 -15.43 -15.02 -15.01 -14.67 -11.79 -11.40 -11.40 -10.90  -8.63  -8.26
         -8.26  -7.78  -6.94  -6.85  -6.85  -6.43  -3.15  -2.98  -2.73  -2.72
         -1.93  -1.93  -1.56  -1.55  -0.98  -0.79  -0.62  -0.61   1.20   1.21
          1.70   1.97   2.52   2.80   2.97   3.26   3.27   4.18   4.19   4.90
          5.93   7.37   7.39   7.90   7.90   8.12   8.41   8.86   9.37   9.39
          9.67   9.71   9.76  10.79  10.96  10.98  13.29  13.49  13.51  14.08
         14.70  14.71  14.96  15.22  15.47  15.82  15.87  15.88  17.86  18.49
         18.51  18.63  19.41  19.44  19.55  20.06  20.88  20.88  21.22  21.31
         27.09  27.11  27.42  27.61  28.18  33.24  33.25  37.19  41.14  41.92
         41.93  47.79  54.27  54.32  57.74  58.08  60.40  73.85  73.87  77.76
         80.81  83.01  83.04 101.64
 251  1 -15.52 -15.08 -15.07 -14.67 -11.44 -10.94 -10.94 -10.35  -9.26  -8.89
         -8.89  -8.46  -7.00  -6.89  -6.89  -6.41  -3.21  -2.71  -2.63  -2.62
         -1.40  -1.39  -1.22  -0.93  -0.21   0.00   0.01   0.07   0.38   0.39
          0.64   1.21   1.38   1.87   2.27   2.28   2.92   4.20   4.21   5.19
          6.27   7.67   7.68   8.34   8.88   8.88   9.08   9.61  10.16  10.34
         10.36  10.81  11.57  11.70  11.71  12.20  12.36  12.76  12.83  12.85
         13.41  13.72  13.73  14.22  14.60  14.83  14.84  15.31  17.68  18.42
         18.44  19.48  19.65  20.13  20.14  20.71  21.49  21.49  21.68  21.83
         25.85  26.30  26.30  26.94  27.54  35.96  35.97  42.91  46.22  46.25
         49.78  50.89  52.35  52.40  56.52  60.52  60.64  67.73  67.76  77.56
         78.22  78.30  78.37  80.52
 252  1 -15.52 -15.08 -15.07 -14.67 -11.44 -10.94 -10.94 -10.35  -9.26  -8.89
         -8.89  -8.46  -7.00  -6.89  -6.89  -6.41  -3.21  -2.71  -2.63  -2.62
         -1.40  -1.39  -1.22  -0.93  -0.21   0.00   0.01   0.07   0.38   0.39
          0.64   1.21   1.38   1.87   2.27   2.28   2.92   4.20   4.21   5.19
          6.27   7.67   7.68   8.34   8.88   8.88   9.08   9.61  10.16  10.34
         10.36  10.81  11.57  11.70  11.71  12.20  12.36  12.76  12.83  12.85
         13.41  13.72  13.73  14.22  14.60  14.83  14.84  15.31  17.68  18.42
         18.44  19.48  19.65  20.13  20.14  20.71  21.49  21.49  21.68  21.83
         25.85  26.30  26.30  26.94  27.54  35.96  35.97  42.91  46.22  46.25
         49.78  50.89  52.35  52.40  56.52  60.52  60.64  67.73  67.76  77.56
         78.22  78.30  78.37  80.52
 253  1 -15.43 -15.02 -15.01 -14.67 -11.79 -11.40 -11.40 -10.90  -8.63  -8.26
         -8.26  -7.78  -6.94  -6.85  -6.85  -6.43  -3.15  -2.98  -2.73  -2.72
         -1.93  -1.93  -1.56  -1.55  -0.98  -0.79  -0.62  -0.61   1.20   1.21
          1.70   1.97   2.52   2.80   2.97   3.26   3.27   4.18   4.19   4.90
          5.93   7.37   7.39   7.90   7.90   8.12   8.41   8.86   9.37   9.39
          9.67   9.71   9.76  10.79  10.96  10.98  13.29  13.49  13.51  14.08
         14.70  14.71  14.96  15.22  15.47  15.82  15.87  15.88  17.86  18.49
         18.51  18.63  19.41  19.44  19.55  20.06  20.88  20.88  21.22  21.31
         27.09  27.11  27.42  27.61  28.18  33.24  33.25  37.19  41.14  41.92
         41.93  47.79  54.27  54.32  57.74  58.08  60.40  73.85  73.87  77.76
         80.81  83.01  83.04 101.64
 254  1 -15.26 -14.93 -14.92 -14.71 -12.10 -11.87 -11.86 -11.47  -7.77  -7.49
         -7.48  -6.99  -6.83  -6.79  -6.78  -6.48  -3.57  -3.20  -3.18  -3.17
         -2.07  -2.06  -1.84  -1.81  -1.79  -1.36  -1.33  -1.32   2.32   2.34
          2.83   3.02   3.13   3.69   4.06   4.06   4.08   4.62   4.70   4.70
          5.46   6.66   6.66   6.85   6.87   7.14   7.67   7.91   8.43   8.56
          8.58   8.75   9.03   9.12   9.46   9.49  14.81  14.96  14.98  15.81
         15.87  15.87  15.98  16.25  16.26  16.39  16.76  16.78  17.55  18.52
         18.55  18.68  18.83  18.84  19.34  19.49  20.06  20.06  20.61  20.85
         27.82  27.86  27.94  28.61  29.29  30.54  30.54  31.29  42.72  44.72
         44.77  49.50  57.03  57.06  60.31  62.04  62.57  74.67  74.70  79.79
         85.10  85.19  90.07  95.04
 255  1 -15.04 -14.85 -14.84 -14.84 -12.15 -12.15 -12.15 -11.92  -6.95  -6.95
         -6.94  -6.69  -6.69  -6.68  -6.57  -6.56  -3.97  -3.65  -3.65  -3.64
         -2.00  -2.00  -2.00  -1.92  -1.91  -1.75  -1.75  -1.74   3.25   3.26
          3.26   3.45   4.47   4.47   4.47   4.52   4.54   5.47   5.50   5.50
          5.53   6.13   6.13   6.14   6.22   6.23   6.23   7.24   7.27   7.52
          7.53   7.53   8.51   8.54   8.55   8.71  16.05  16.21  16.24  16.24
         16.78  16.80  16.95  16.96  16.96  17.28  17.29  17.29  18.45  18.51
         18.51  19.15  19.15  19.16  19.40  19.40  19.41  19.76  19.77  20.70
         28.39  28.39  28.44  29.13  29.20  29.32  29.32  29.33  55.64  55.65
         55.80  58.23  67.04  67.13  67.13  67.71  67.76  68.09  78.80  79.23
        101.58 101.65 101.67 103.80
 256  1 -15.04 -14.85 -14.84 -14.84 -12.15 -12.15 -12.15 -11.92  -6.95  -6.95
         -6.94  -6.69  -6.69  -6.68  -6.57  -6.56  -3.97  -3.65  -3.65  -3.64
         -2.00  -2.00  -2.00  -1.92  -1.91  -1.75  -1.75  -1.74   3.25   3.26
          3.26   3.45   4.47   4.47   4.47   4.52   4.54   5.47   5.50   5.50
          5.53   6.13   6.13   6.14   6.22   6.23   6.23   7.24   7.27   7.52
          7.53   7.53   8.51   8.54   8.55   8.71  16.05  16.21  16.24  16.24
         16.78  16.80  16.95  16.96  16.96  17.28  17.29  17.29  18.45  18.51
         18.51  19.15  19.15  19.16  19.40  19.40  19.41  19.76  19.77  20.70
         28.39  28.39  28.44  29.13  29.20  29.32  29.32  29.33  55.64  55.65
         55.80  58.23  67.04  67.13  67.13  67.71  67.76  68.09  78.80  79.23
        101.58 101.65 101.67 103.80
siesta: Fermi energy =      -4.999650 eV

siesta: Program's energy decomposition (eV):
siesta: Ebs     =      -331.676747
siesta: Eions   =      1510.441798
siesta: Ena     =       471.312786
siesta: Ekin    =       319.298010
siesta: Enl     =       127.093875
siesta: DEna    =         6.604258
siesta: DUscf   =         1.519198
siesta: DUext   =         0.000000
siesta: Exc     =      -446.059785
siesta: eta*DQ  =         0.000000
siesta: Emadel  =         0.000000
siesta: Emeta   =         0.000000
siesta: Emolmec =         0.000000
siesta: Ekinion =         0.000000
siesta: Eharris =     -1030.674596
siesta: Etot    =     -1030.673457
siesta: FreeEng =     -1030.673457

siesta: Final energy (eV):
siesta:  Band Struct. =    -331.676747
siesta:       Kinetic =     319.298010
siesta:       Hartree =      59.895156
siesta:    Ext. field =       0.000000
siesta:   Exch.-corr. =    -446.059785
siesta:  Ion-electron =    -421.905505
siesta:       Ion-ion =    -541.901333
siesta:       Ekinion =       0.000000
siesta:         Total =   -1030.673457

siesta: Stress tensor (static) (eV/Ang**3):
siesta:     0.000053    0.000615    0.000615
siesta:     0.000615    0.000053    0.000615
siesta:     0.000615    0.000615    0.000053

siesta: Constrained stress tensor (static) (eV/Ang**3):
siesta:     0.000053    0.000615    0.000615
siesta:     0.000615    0.000053    0.000615
siesta:     0.000615    0.000615    0.000053

siesta: Cell volume =        168.095240 Ang**3

siesta: Pressure (static):
siesta:                Solid            Molecule  Units
siesta:          -0.00000058          0.00000158  Ry/Bohr**3
siesta:          -0.00005348          0.00014489  eV/Ang**3
siesta:          -0.08568992          0.23214816  kBar
(Free)E+ p_basis*V_orbitals  =       -1021.735726
(Free)Eharris+ p_basis*V_orbitals  =       -1021.737348

* Maximum dynamic memory allocated : Node    0 =    94 MB

* Maximum memory occured during init_pulay_arrrays            

timer: CPU execution times:
timer:  Routine       Calls   Time/call    Tot.time        %
timer:  siesta            1    2544.235    2544.235   100.00
timer:  Setup             1       0.180       0.180     0.01
timer:  bands             3       0.546       1.638     0.06
timer:  writewave         3       0.008       0.024     0.00
timer:  KSV_init          1       0.000       0.000     0.00
timer:  IterMD           18     141.236    2542.252    99.92
timer:  hsparse          18       0.218       3.917     0.15
timer:  overlap          18       0.128       2.309     0.09
timer:  IterSCF          85      25.943    2205.139    86.67
timer:  kinefsm          36       0.135       4.846     0.19
timer:  nlefsm           36       4.046     145.646     5.72
timer:  DHSCF           103       9.203     947.958    37.26
timer:  DHSCF1           18       0.054       0.970     0.04
timer:  DHSCF2           18       3.332      59.975     2.36
timer:  REORD           654       0.000       0.098     0.00
timer:  POISON          121       0.005       0.608     0.02
timer:  DHSCF3          103       7.472     769.632    30.25
timer:  rhoofd          103       3.378     347.969    13.68
timer:  cellXC          103       0.179      18.394     0.72
timer:  vmat            103       3.907     402.444    15.82
timer:  MolMec           36       0.000       0.000     0.00
timer:  diagon           85      16.817    1429.407    56.18
timer:  c-eigval      23060       0.018     405.004    15.92
timer:  c-buildHS     23060       0.010     232.765     9.15
timer:  cdiag         46020       0.010     440.031    17.30
timer:  cdiag1        46020       0.001      38.965     1.53
timer:  cdiag2        46020       0.002     114.049     4.48
timer:  cdiag3        46020       0.006     279.003    10.97
timer:  cdiag4        46020       0.000       5.598     0.22
timer:  c-eigvec      22960       0.022     501.056    19.69
timer:  c-buildD      22959       0.023     523.321    20.57
timer:  DHSCF4           18       6.519     117.336     4.61
timer:  dfscf            18       5.688     102.389     4.02
timer:  overfsm          18       0.125       2.244     0.09
timer:  optical           1       0.000       0.000     0.00
  

elaps: ELAPSED times:
elaps:  Routine       Calls   Time/call    Tot.time        %
elaps:  siesta            1    2558.462    2558.462   100.00
elaps:  Setup             1       0.180       0.180     0.01
elaps:  bands             3       0.546       1.638     0.06
elaps:  writewave         3       0.008       0.024     0.00
elaps:  KSV_init          1       0.000       0.000     0.00
elaps:  IterMD           18     142.026    2556.469    99.92
elaps:  hsparse          18       0.218       3.931     0.15
elaps:  overlap          18       0.128       2.310     0.09
elaps:  IterSCF          85      26.088    2217.487    86.67
elaps:  kinefsm          36       0.135       4.848     0.19
elaps:  nlefsm           36       4.046     145.671     5.69
elaps:  DHSCF           103       9.211     948.735    37.08
elaps:  DHSCF1           18       0.054       0.971     0.04
elaps:  DHSCF2           18       3.333      59.987     2.34
elaps:  REORD           654       0.000       0.099     0.00
elaps:  POISON          121       0.005       0.610     0.02
elaps:  DHSCF3          103       7.474     769.825    30.09
elaps:  rhoofd          103       3.380     348.091    13.61
elaps:  cellXC          103       0.179      18.396     0.72
elaps:  vmat            103       3.908     402.515    15.73
elaps:  MolMec           36       0.000       0.000     0.00
elaps:  diagon           85      16.828    1430.344    55.91
elaps:  c-eigval      23060       0.018     405.064    15.83
elaps:  c-buildHS     23060       0.010     232.975     9.11
elaps:  cdiag         46020       0.010     440.058    17.20
elaps:  cdiag1        46020       0.001      38.991     1.52
elaps:  cdiag2        46020       0.002     114.153     4.46
elaps:  cdiag3        46020       0.006     279.276    10.92
elaps:  cdiag4        46020       0.000       5.612     0.22
elaps:  c-eigvec      22960       0.022     501.298    19.59
elaps:  c-buildD      22959       0.023     523.676    20.47
elaps:  DHSCF4           18       6.550     117.904     4.61
elaps:  dfscf            18       5.689     102.400     4.00
elaps:  overfsm          18       0.125       2.245     0.09
elaps:  optical           1       0.000       0.000     0.00
  
>> End of run:  13-MAY-2013  13:41:35
