Siesta Version:                                        siesta-3.2
Architecture  : x86_64-unknown-linux-gnu--unknown
Compiler flags: f95 -g -O2
SERIAL version

* Running in serial mode
Siesta Version:                                        siesta-3.2
Architecture  : x86_64-unknown-linux-gnu--unknown
Compiler flags: f95 -g -O2
SERIAL version

* Running in serial mode
>> Start of run:   9-MAY-2013  15:02:04

                           ***********************       
                           *  WELCOME TO SIESTA  *       
                           ***********************       

reinit: Reading from standard input
************************** Dump of input data file ****************************
# FDF for silicon
SystemName             silicon          # Descriptive name of the system
SystemLabel            si          # Short name for naming files
NumberOfAtoms 8
NumberOfSpecies 1
%block ChemicalSpeciesLabel
1 14 Si
%endblock ChemicalSpeciesLabel
LatticeConstant  5.40 Ang
##Basis set Definition##
PAO.BasisType          split        # Type of PAO basis set
PAO.EnergyShift        50 meV
PAO.BasisSize          DZP          # (DZP) Double-z + polarization
#%block LatticeVectors
#0.500 0.500 0.000
#0.500 0.000 0.500
#0.000 0.500 0.500
#%endblock LatticeVectors
AtomicCoordinatesFormat NotScaledCartesianAng
%block AtomicCoordinatesAndAtomicSpecies
	0.00000000	0.00000000	0.00000000  1 Si  1
	1.36000000	1.36000000	1.36000000  1 Si  2
	2.72000000	2.72000000	0.00000000  1 Si  3
	4.08000000	4.08000000	1.36000000  1 Si  4
	2.72000000	0.00000000	2.72000000  1 Si  5
	4.08000000	1.36000000	4.08000000  1 Si  6
	0.00000000	2.72000000	2.72000000  1 Si  7
	1.36000000	4.08000000	4.08000000  1 Si  8
%endblock AtomicCoordinatesAndAtomicSpecies
MeshCutoff 100.0 Ry # 100, 120, 180, 260
kgrid_cutoff 30.0 Bohr # 30, 35, 40, 45
DM.Mixingweight  0.3
DM.NumberPulay    3
DM.Tolerance      1.d-3
DM.UseSaveDM      true
ElectronicTemperature 25 meV
SolutionMethod    diagon
XC.functional      GGA	    # Generalized Gradient Approximation
XC.authors        PBE          # Perdew-Burke-Ernzerhof
SpinPolarized     false
MD.TypeOfRun           CG           # Type of dynamics:
MD.VariableCell        true
MD.NumCGsteps          100          # Number of CG steps for coordinate optimization
MD.MaxCGDispl          0.2 Bohr     # Maximum atomic displacement
                                    #   in one CG step (Bohr)
MD.MaxForceTol         0.04 eV/Ang  # Tolerance in the maximum
                                    #   atomic force (Ry/Bohr)
				
##Output Specification##
WriteMDhistory         true         # Trajectory information
WriteCoorStep          true
WriteCoorXmol          true
WriteMDXmol            true
WriteEigenvalues true
WriteKbands      true
WriteBands       true
WriteWaveFunctions true
WriteMullikenPoP   1
%block BandLines
1	1.000	1.000 1.000 L
25	0.000	0.000	0.000 \Gamma
30	2.000	0.000	0.000 X
10	2.000	0.500	0.500 U
35	0.000	0.000	0.000 \Gamma
%endblock BandLines
%block WaveFuncKPoints
0.0 0.0 0.0 from 1 to 50 # > 16 = 4/2*8 (Valenzelektronen/2, Atomzahl ...)
%endblock WaveFuncKpoints
************************** End of input data file *****************************

reinit: -----------------------------------------------------------------------
reinit: System Name: silicon
reinit: -----------------------------------------------------------------------
reinit: System Label: si                                                          
reinit: -----------------------------------------------------------------------
>> Start of run:   9-MAY-2013  15:02:04

                           ***********************       
                           *  WELCOME TO SIESTA  *       
                           ***********************       

reinit: Reading from standard input
************************** Dump of input data file ****************************
************************** End of input data file *****************************

reinit: -----------------------------------------------------------------------
reinit: System Name: 
reinit: -----------------------------------------------------------------------
reinit: System Label: siesta                                                      
reinit: -----------------------------------------------------------------------

initatom: Reading input for the pseudopotentials and atomic orbitals ----------
No species found!!!
ERROR STOP from Node:    0

initatom: Reading input for the pseudopotentials and atomic orbitals ----------
 Species number:            1  Label: Si Atomic number:          14
Ground state valence configuration:   3s02  3p02
Reading pseudopotential information in formatted form from Si.psf

Valence configuration for pseudopotential generation:
3s( 2.00) rc: 1.75
3p( 2.00) rc: 1.94
3d( 0.00) rc: 2.09
4f( 0.00) rc: 2.09
For Si, standard SIESTA heuristics set lmxkb to 3
 (one more than the basis l, including polarization orbitals).
Use PS.lmax or PS.KBprojectors blocks to override.

<basis_specs>
===============================================================================
Si                   Z=  14    Mass=  28.090        Charge= 0.17977+309
Lmxo=1 Lmxkb= 3    BasisType=split      Semic=F
L=0  Nsemic=0  Cnfigmx=3
          n=1  nzeta=2  polorb=0
            splnorm:   0.15000    
               vcte:    0.0000    
               rinn:    0.0000    
                rcs:    0.0000      0.0000    
            lambdas:    1.0000      1.0000    
L=1  Nsemic=0  Cnfigmx=3
          n=1  nzeta=2  polorb=1
            splnorm:   0.15000    
               vcte:    0.0000    
               rinn:    0.0000    
                rcs:    0.0000      0.0000    
            lambdas:    1.0000      1.0000    
-------------------------------------------------------------------------------
L=0  Nkbl=1  erefs: 0.17977+309
L=1  Nkbl=1  erefs: 0.17977+309
L=2  Nkbl=1  erefs: 0.17977+309
L=3  Nkbl=1  erefs: 0.17977+309
===============================================================================
</basis_specs>

atom: Called for Si                    (Z =  14)

read_vps: Pseudopotential generation method:
read_vps: ATM3      Troullier-Martins                       
Total valence charge:    4.00000

read_vps: Pseudopotential includes a core correction:
read_vps: Pseudo-core for xc-correction

xc_check: Exchange-correlation functional:
xc_check: GGA Perdew, Burke & Ernzerhof 1996
V l=0 = -2*Zval/r beyond r=  2.0104
V l=1 = -2*Zval/r beyond r=  2.0873
V l=2 = -2*Zval/r beyond r=  2.1670
V l=3 = -2*Zval/r beyond r=  2.1670
All V_l potentials equal beyond r=  2.0613
This should be close to max(r_c) in ps generation
All pots = -2*Zval/r beyond r=  2.1670

VLOCAL1: 99.0% of the norm of Vloc inside     10.216 Ry
VLOCAL1: 99.9% of the norm of Vloc inside     23.282 Ry
atom: Maximum radius for 4*pi*r*r*local-pseudopot. charge    2.45560
atom: Maximum radius for r*vlocal+2*Zval:    2.14012
GHOST: No ghost state for L =  0
GHOST: No ghost state for L =  1
GHOST: No ghost state for L =  2
GHOST: No ghost state for L =  3

KBgen: Kleinman-Bylander projectors: 
   l= 0   rc=  2.306811   el= -0.791441   Ekb=  5.289775   kbcos=  0.291595
   l= 1   rc=  2.394965   el= -0.300632   Ekb=  1.944256   kbcos=  0.287657
   l= 2   rc=  2.549439   el=  0.001958   Ekb= -1.788485   kbcos= -0.056492
   l= 3   rc=  2.782581   el=  0.003046   Ekb= -0.472620   kbcos= -0.006203

KBgen: Total number of  Kleinman-Bylander projectors:   16
atom: -------------------------------------------------------------------------

atom: SANKEY-TYPE ORBITALS:
atom: Selected multiple-zeta basis: split     

SPLIT: Orbitals with angular momentum L= 0

SPLIT: Basis orbitals for state 3s

SPLIT: PAO cut-off radius determined from an
SPLIT: energy shift=  0.003675 Ry

   izeta = 1
                 lambda =    1.000000
                     rc =    6.116033
                 energy =   -0.788343
                kinetic =    0.528041
    potential(screened) =   -1.316383
       potential(ionic) =   -3.704743

   izeta = 2
                 rmatch =    4.530823
              splitnorm =    0.150000
                 energy =   -0.692892
                kinetic =    0.848665
    potential(screened) =   -1.541557
       potential(ionic) =   -4.044985

SPLIT: Orbitals with angular momentum L= 1

SPLIT: Basis orbitals for state 3p

SPLIT: PAO cut-off radius determined from an
SPLIT: energy shift=  0.003675 Ry

   izeta = 1
                 lambda =    1.000000
                     rc =    7.853192
                 energy =   -0.297152
                kinetic =    0.797948
    potential(screened) =   -1.095101
       potential(ionic) =   -3.275753

   izeta = 2
                 rmatch =    5.330310
              splitnorm =    0.150000
                 energy =   -0.228170
                kinetic =    1.148579
    potential(screened) =   -1.376749
       potential(ionic) =   -3.739005

POLgen: Perturbative polarization orbital with L=  2

POLgen: Polarization orbital for state 3p

   izeta = 1
                     rc =    7.853192
                 energy =    0.340222
                kinetic =    1.096718
    potential(screened) =   -0.756496
       potential(ionic) =   -2.716423
atom: Total number of Sankey-type orbitals: 13

atm_pop: Valence configuration (for local Pseudopot. screening):
 3s( 2.00)                                                            
 3p( 2.00)                                                            
Vna: chval, zval:    4.00000   4.00000

Vna:  Cut-off radius for the neutral-atom potential:   7.853192
comcore: Pseudo-core radius Rcore=  2.999314

atom: _________________________________________________________________________

prinput: Basis input ----------------------------------------------------------

PAO.BasisType split     

%block ChemicalSpeciesLabel
    1   14 Si                      # Species index, atomic number, species label
%endblock ChemicalSpeciesLabel

%block PAO.Basis                 # Define Basis set
Si                    2                    # Species label, number of l-shells
 n=3   0   2                         # n, l, Nzeta 
   6.116      4.531   
   1.000      1.000   
 n=3   1   2 P   1                   # n, l, Nzeta, Polarization, NzetaPol
   7.853      5.330   
   1.000      1.000   
%endblock PAO.Basis

prinput: ----------------------------------------------------------------------

coor:   Atomic-coordinates input format  =     Cartesian coordinates
coor:                                          (in Angstroms)

siesta: Atomic coordinates (Bohr) and species
siesta:      0.00000   0.00000   0.00000  1        1
siesta:      2.57003   2.57003   2.57003  1        2
siesta:      5.14006   5.14006   0.00000  1        3
siesta:      7.71009   7.71009   2.57003  1        4
siesta:      5.14006   0.00000   5.14006  1        5
siesta:      7.71009   2.57003   7.71009  1        6
siesta:      0.00000   5.14006   5.14006  1        7
siesta:      2.57003   7.71009   7.71009  1        8

siesta: System type = bulk      

initatomlists: Number of atoms, orbitals, and projectors:      8   104   128

siesta: ******************** Simulation parameters ****************************
siesta:
siesta: The following are some of the parameters of the simulation.
siesta: A complete list of the parameters used, including default values,
siesta: can be found in file out.fdf
siesta:
redata: Non-Collinear-spin run           =     F
redata: SpinPolarized (Up/Down) run      =     F
redata: Number of spin components        =     1
redata: Long output                      =     F
redata: Number of Atomic Species         =        1
redata: Charge density info will appear in .RHO file
redata: Write Mulliken Pop.              =     Atomic and Orbital charges
redata: Mesh Cutoff                      =   100.0000  Ry
redata: Net charge of the system         =     0.0000 |e|
redata: Max. number of SCF Iter          =       50
redata: Performing Pulay mixing using    =     3 iterations
redata: Mix DM in first SCF step ?       =     F
redata: Write Pulay info on disk?        =     F
redata: Discard 1st Pulay DM after  kick =     F
redata: New DM Mixing Weight             =     0.3000
redata: New DM Occupancy tolerance       = 0.000000000001
redata: No kicks to SCF
redata: DM Mixing Weight for Kicks       =     0.5000
redata: DM Tolerance for SCF             =     0.001000
redata: Require Energy convergence for SCF =     F
redata: DM Energy tolerance for SCF      =     0.000100 eV
redata: Require Harris convergence for SCF =     F
redata: DM Harris energy tolerance for SCF =     0.000100 eV
redata: Using Saved Data (generic)   =     F
redata: Use continuation files for DM    =     T
redata: Neglect nonoverlap interactions  =     F
redata: Method of Calculation            =     Diagonalization
redata: Divide and Conquer               =     T
redata: Electronic Temperature           =     0.0018  Ry
redata: Fix the spin of the system       =     F
redata: Dynamics option                  =     CG coord. optimization
redata: Variable cell                    =     T
redata: Use continuation files for CG    =     F
redata: Max atomic displ per move        =     0.2000  Bohr
redata: Maximum number of CG moves       =      100
redata: Force tolerance                  =     0.0016  Ry/Bohr
redata: Stress tolerance                 =     1.0000  GPa
redata: ***********************************************************************
Total number of electrons:    32.000000
Total ionic charge:    32.000000
 Kpoints in:          108 . Kpoints trimmed:          108

siesta: k-grid: Number of k-points =   108
siesta: k-grid: Cutoff (effective) =    16.200 Ang
siesta: k-grid: Supercell and displacements
siesta: k-grid:    0   6   0      0.500
siesta: k-grid:    0   0   6      0.500
siesta: k-grid:    6   0   0      0.500
Naive supercell factors:     5    5    5

superc: Internal auxiliary supercell:     5 x     5 x     5  =     125
superc: Number of atoms, orbitals, and projectors:   1000  13000  16000

* Maximum dynamic memory allocated =     1 MB

siesta:                 ==============================
                            Begin CG move =      0
                        ==============================

outcoor: Atomic coordinates (Ang):                          
    0.00000000    0.00000000    0.00000000   1       1  Si
    1.36000000    1.36000000    1.36000000   1       2  Si
    2.72000000    2.72000000    0.00000000   1       3  Si
    4.08000000    4.08000000    1.36000000   1       4  Si
    2.72000000    0.00000000    2.72000000   1       5  Si
    4.08000000    1.36000000    4.08000000   1       6  Si
    0.00000000    2.72000000    2.72000000   1       7  Si
    1.36000000    4.08000000    4.08000000   1       8  Si

superc: Internal auxiliary supercell:     5 x     5 x     5  =     125
superc: Number of atoms, orbitals, and projectors:   1000  13000  16000

outcell: Unit cell vectors (Ang):
        5.400000    0.000000    0.000000
        0.000000    5.400000    0.000000
        0.000000    0.000000    5.400000

outcell: Cell vector modules (Ang)   :    5.400000    5.400000    5.400000
outcell: Cell angles (23,13,12) (deg):     90.0000     90.0000     90.0000
outcell: Cell volume (Ang**3)        :    157.4640
New_DM. Step:     1
Initializing Density Matrix...

InitMesh: MESH =    36 x    36 x    36 =       46656
InitMesh: Mesh cutoff (required, used) =   100.000   122.834 Ry

* Maximum dynamic memory allocated =    76 MB

stepf: Fermi-Dirac step function

siesta: Program's energy decomposition (eV):
siesta: Ebs     =      -350.434207
siesta: Eions   =      1510.441798
siesta: Ena     =       467.313073
siesta: Ekin    =       288.667622
siesta: Enl     =       155.138818
siesta: DEna    =         0.000001
siesta: DUscf   =         0.000000
siesta: DUext   =         0.000000
siesta: Exc     =      -446.462454
siesta: eta*DQ  =         0.000000
siesta: Emadel  =         0.000000
siesta: Emeta   =         0.000000
siesta: Emolmec =         0.000000
siesta: Ekinion =         0.000000
siesta: Eharris =     -1030.720953
siesta: Etot    =     -1045.784739
siesta: FreeEng =     -1045.784739

siesta: iscf   Eharris(eV)      E_KS(eV)   FreeEng(eV)   dDmax  Ef(eV)
siesta:    1    -1030.7210    -1045.7847    -1045.7847  1.7336 -5.3885
timer: Routine,Calls,Time,% = IterSCF        1      20.161  96.40
elaps: Routine,Calls,Wall,% = IterSCF        1      20.245  95.98
siesta:    2    -1030.4554    -1030.3910    -1030.3910  0.0942 -5.0695
siesta:    3    -1030.4472    -1030.9779    -1030.9779  0.0447 -5.1001
siesta:    4    -1030.4450    -1030.4614    -1030.4614  0.0053 -5.1188
siesta:    5    -1030.4449    -1030.4595    -1030.4595  0.0038 -5.1183
siesta:    6    -1030.4450    -1030.4401    -1030.4401  0.0006 -5.1185

siesta: E_KS(eV) =            -1030.4411

siesta: E_KS - E_eggbox =     -1030.4411

siesta: Atomic forces (eV/Ang):
----------------------------------------
   Tot   -0.003227   -0.003230   -0.003248
----------------------------------------
   Max    0.343890
   Res    0.241753    sqrt( Sum f_i^2 / 3N )
----------------------------------------
   Max    0.343890    constrained

Stress-tensor-Voigt (kbar):      -64.13      -64.13      -64.13        5.32        5.32        5.32
(Free)E + p*V (eV/cell)    -1024.1388
Target enthalpy (eV/cell)    -1030.4411

siesta: Stress tensor (static) (eV/Ang**3):
        -0.040023    0.003318    0.003318
         0.003318   -0.040023    0.003318
         0.003318    0.003318   -0.040023

siesta: Pressure (static):         64.12515104  kBar

siesta: Stress tensor (total) (eV/Ang**3):
        -0.040023    0.003318    0.003318
         0.003318   -0.040023    0.003318
         0.003318    0.003318   -0.040023

siesta: Pressure (total):         64.12515104  kBar

mulliken: Mulliken Atomic and Orbital Populations:

Species: Si                  
Atom  Qatom  Qorb
               3s      3s      3py     3pz     3px     3py     3pz     3px     
               3Pdxy   3Pdyz   3Pdz2   3Pdxz   3Pdx2-y2
   1  4.009   0.566   0.609   0.186   0.186   0.186   0.574   0.574   0.574
              0.131   0.131   0.081   0.131   0.081
   2  3.993   0.615   0.584   0.199   0.199   0.199   0.556   0.556   0.556
              0.126   0.126   0.075   0.126   0.075
   3  3.997   0.599   0.591   0.189   0.202   0.189   0.566   0.558   0.566
              0.129   0.127   0.076   0.127   0.078
   4  4.002   0.583   0.600   0.194   0.180   0.194   0.566   0.574   0.566
              0.128   0.130   0.080   0.130   0.077
   5  3.997   0.599   0.591   0.202   0.189   0.189   0.558   0.566   0.566
              0.127   0.127   0.078   0.129   0.076
   6  4.002   0.583   0.600   0.180   0.194   0.194   0.574   0.566   0.566
              0.130   0.130   0.078   0.128   0.079
   7  3.997   0.599   0.591   0.189   0.189   0.202   0.566   0.566   0.558
              0.127   0.129   0.078   0.127   0.076
   8  4.002   0.583   0.600   0.194   0.194   0.180   0.566   0.566   0.574
              0.130   0.128   0.078   0.130   0.079

mulliken: Qtot =       32.000

cgvc: No target stress found, assuming hydrostatic MD.TargetPressure.

cgvc: Target stress (kBar)
cgvc:        -0.000       0.000       0.000
cgvc:         0.000      -0.000       0.000
cgvc:         0.000       0.000      -0.000

* Maximum dynamic memory allocated =    78 MB

siesta:                 ==============================
                            Begin CG move =      1
                        ==============================

outcoor: Atomic coordinates (Ang):                          
    0.01455577    0.01455579    0.01455539   1       1  Si
    1.37375613    1.37375606    1.37375569   1       2  Si
    2.74508791    2.74508783    0.00932969   1       3  Si
    4.10411942    4.10411939    1.36966117   1       4  Si
    2.74508827    0.00933022    2.74508836   1       5  Si
    4.10411923    1.36966111    4.10411944   1       6  Si
    0.00933041    2.74508838    2.74508831   1       7  Si
    1.36966117    4.10411946    4.10411943   1       8  Si
 Kpoints in:          108 . Kpoints trimmed:          108

siesta: k-grid: Number of k-points =   108
siesta: k-grid: Cutoff (effective) =    16.374 Ang
siesta: k-grid: Supercell and displacements
siesta: k-grid:    6   0   0      0.500
siesta: k-grid:    0   6   0      0.500
siesta: k-grid:    0   0   6      0.500
Naive supercell factors:     5    5    5

superc: Internal auxiliary supercell:     5 x     5 x     5  =     125
superc: Number of atoms, orbitals, and projectors:   1000  13000  16000

outcell: Unit cell vectors (Ang):
        5.457853   -0.004796   -0.004796
       -0.004796    5.457853   -0.004796
       -0.004796   -0.004796    5.457853

outcell: Cell vector modules (Ang)   :    5.457857    5.457857    5.457857
outcell: Cell angles (23,13,12) (deg):     90.1006     90.1006     90.1006
outcell: Cell volume (Ang**3)        :    162.5790
New_DM. Step:     2
Re-using DM from previous geometry...
Re-using DM without extrapolation (not allowed)
Density Matrix sparsity pattern changed.

InitMesh: MESH =    36 x    36 x    36 =       46656
InitMesh: Mesh cutoff (required, used) =   100.000   120.244 Ry

siesta: iscf   Eharris(eV)      E_KS(eV)   FreeEng(eV)   dDmax  Ef(eV)
siesta:    1    -1030.6317    -1029.6585    -1029.6585  0.0299 -5.0500
siesta:    2    -1030.6586    -1030.6045    -1030.6045  0.0235 -5.0639
siesta:    3    -1030.6226    -1030.5184    -1030.5184  0.0043 -5.0590
siesta:    4    -1030.6225    -1030.6124    -1030.6124  0.0009 -5.0598

siesta: E_KS(eV) =            -1030.6166

siesta: Atomic forces (eV/Ang):
----------------------------------------
   Tot   -0.002004   -0.001989   -0.001986
----------------------------------------
   Max    0.089433
   Res    0.062340    sqrt( Sum f_i^2 / 3N )
----------------------------------------
   Max    0.089433    constrained

Stress-tensor-Voigt (kbar):      -30.32      -30.32      -30.32       -2.98       -2.98       -2.98
(Free)E + p*V (eV/cell)    -1027.5396
Target enthalpy (eV/cell)    -1030.6166

siesta: Stress tensor (static) (eV/Ang**3):
        -0.018926   -0.001861   -0.001861
        -0.001861   -0.018926   -0.001861
        -0.001861   -0.001861   -0.018926

siesta: Pressure (static):         30.32298960  kBar

siesta: Stress tensor (total) (eV/Ang**3):
        -0.018926   -0.001861   -0.001861
        -0.001861   -0.018926   -0.001861
        -0.001861   -0.001861   -0.018926

siesta: Pressure (total):         30.32298960  kBar

mulliken: Mulliken Atomic and Orbital Populations:

Species: Si                  
Atom  Qatom  Qorb
               3s      3s      3py     3pz     3px     3py     3pz     3px     
               3Pdxy   3Pdyz   3Pdz2   3Pdxz   3Pdx2-y2
   1  4.001   0.612   0.585   0.217   0.217   0.217   0.545   0.545   0.545
              0.124   0.124   0.074   0.124   0.074
   2  3.998   0.619   0.581   0.221   0.221   0.221   0.540   0.540   0.540
              0.123   0.123   0.073   0.123   0.073
   3  4.000   0.617   0.582   0.219   0.220   0.219   0.543   0.541   0.543
              0.123   0.123   0.073   0.123   0.074
   4  4.000   0.613   0.584   0.220   0.217   0.220   0.542   0.544   0.542
              0.123   0.124   0.074   0.124   0.074
   5  4.000   0.617   0.582   0.220   0.219   0.219   0.541   0.543   0.543
              0.123   0.123   0.074   0.123   0.074
   6  4.000   0.613   0.584   0.217   0.220   0.220   0.544   0.542   0.542
              0.124   0.124   0.074   0.123   0.074
   7  4.000   0.617   0.582   0.219   0.219   0.220   0.543   0.543   0.541
              0.123   0.123   0.074   0.123   0.074
   8  4.000   0.613   0.584   0.220   0.220   0.217   0.542   0.542   0.544
              0.124   0.123   0.074   0.124   0.074

mulliken: Qtot =       32.000

* Maximum dynamic memory allocated =    78 MB

siesta:                 ==============================
                            Begin CG move =      2
                        ==============================

outcoor: Atomic coordinates (Ang):                          
    0.03838139    0.03838143    0.03838036   1       1  Si
    1.39582494    1.39582477    1.39582379   1       2  Si
    2.78511106    2.78511083    0.02489341   1       3  Si
    4.14210468    4.14210460    1.38532897   1       4  Si
    2.78511200    0.02489481    2.78511223   1       5  Si
    4.14210418    1.38532881    4.14210472   1       6  Si
    0.02489531    2.78511230    2.78511211   1       7  Si
    1.38532897    4.14210479    4.14210469   1       8  Si
 Kpoints in:          108 . Kpoints trimmed:          108

siesta: k-grid: Number of k-points =   108
siesta: k-grid: Cutoff (effective) =    16.651 Ang
siesta: k-grid: Supercell and displacements
siesta: k-grid:    6   0   0      0.500
siesta: k-grid:    0   6   0      0.500
siesta: k-grid:    0   0   6      0.500
Naive supercell factors:     5    5    5

superc: Internal auxiliary supercell:     5 x     5 x     5  =     125
superc: Number of atoms, orbitals, and projectors:   1000  13000  16000

outcell: Unit cell vectors (Ang):
        5.550418   -0.012469   -0.012469
       -0.012469    5.550418   -0.012469
       -0.012469   -0.012469    5.550418

outcell: Cell vector modules (Ang)   :    5.550446    5.550446    5.550446
outcell: Cell angles (23,13,12) (deg):     90.2571     90.2571     90.2571
outcell: Cell volume (Ang**3)        :    170.9899
New_DM. Step:     3
Re-using DM from previous geometry...
Re-using DM without extrapolation (not allowed)
Density Matrix sparsity pattern changed.

InitMesh: MESH =    36 x    36 x    36 =       46656
InitMesh: Mesh cutoff (required, used) =   100.000   116.270 Ry

siesta: iscf   Eharris(eV)      E_KS(eV)   FreeEng(eV)   dDmax  Ef(eV)
siesta:    1    -1030.6094    -1029.2248    -1029.2248  0.0394 -4.9277
siesta:    2    -1030.6985    -1030.5208    -1030.5208  0.0426 -4.9580
siesta:    3    -1030.5797    -1030.3451    -1030.3451  0.0093 -4.9459
siesta:    4    -1030.5794    -1030.5550    -1030.5550  0.0016 -4.9471
siesta:    5    -1030.5793    -1030.5643    -1030.5643  0.0010 -4.9478

siesta: E_KS(eV) =            -1030.5744

siesta: Atomic forces (eV/Ang):
----------------------------------------
   Tot   -0.009444   -0.009449   -0.009464
----------------------------------------
   Max    0.546470
   Res    0.401736    sqrt( Sum f_i^2 / 3N )
----------------------------------------
   Max    0.546470    constrained

Stress-tensor-Voigt (kbar):       12.27       12.27       12.27      -12.55      -12.55      -12.55
(Free)E + p*V (eV/cell)    -1031.8842
Target enthalpy (eV/cell)    -1030.5744

siesta: Stress tensor (static) (eV/Ang**3):
         0.007660   -0.007833   -0.007833
        -0.007833    0.007660   -0.007833
        -0.007833   -0.007833    0.007660

siesta: Pressure (static):        -12.27343807  kBar

siesta: Stress tensor (total) (eV/Ang**3):
         0.007660   -0.007833   -0.007833
        -0.007833    0.007660   -0.007833
        -0.007833   -0.007833    0.007660

siesta: Pressure (total):        -12.27343807  kBar

mulliken: Mulliken Atomic and Orbital Populations:

Species: Si                  
Atom  Qatom  Qorb
               3s      3s      3py     3pz     3px     3py     3pz     3px     
               3Pdxy   3Pdyz   3Pdz2   3Pdxz   3Pdx2-y2
   1  4.000   0.683   0.550   0.270   0.270   0.270   0.496   0.496   0.496
              0.113   0.113   0.065   0.113   0.065
   2  4.000   0.630   0.576   0.245   0.245   0.245   0.521   0.521   0.521
              0.119   0.119   0.071   0.119   0.071
   3  4.000   0.645   0.569   0.259   0.244   0.259   0.509   0.518   0.509
              0.116   0.118   0.070   0.118   0.068
   4  4.000   0.663   0.560   0.257   0.269   0.257   0.507   0.500   0.507
              0.116   0.115   0.066   0.115   0.068
   5  4.000   0.645   0.569   0.244   0.259   0.259   0.518   0.509   0.509
              0.118   0.118   0.068   0.116   0.070
   6  4.000   0.663   0.560   0.269   0.257   0.257   0.500   0.507   0.507
              0.115   0.115   0.068   0.116   0.067
   7  4.000   0.645   0.569   0.259   0.259   0.244   0.509   0.509   0.518
              0.118   0.116   0.068   0.118   0.070
   8  4.000   0.663   0.560   0.257   0.257   0.269   0.507   0.507   0.500
              0.115   0.116   0.068   0.115   0.067

mulliken: Qtot =       32.000

* Maximum dynamic memory allocated =    84 MB

siesta:                 ==============================
                            Begin CG move =      3
                        ==============================

outcoor: Atomic coordinates (Ang):                          
    0.02434054    0.02434057    0.02433990   1       1  Si
    1.38288477    1.38288467    1.38288405   1       2  Si
    2.76167680    2.76167666    0.01567877   1       3  Si
    4.11993744    4.11993739    1.37611698   1       4  Si
    2.76167740    0.01567966    2.76167754   1       5  Si
    4.11993712    1.37611688    4.11993746   1       6  Si
    0.01567998    2.76167759    2.76167747   1       7  Si
    1.37611698    4.11993751    4.11993745   1       8  Si
 Kpoints in:          108 . Kpoints trimmed:          108

siesta: k-grid: Number of k-points =   108
siesta: k-grid: Cutoff (effective) =    16.489 Ang
siesta: k-grid: Supercell and displacements
siesta: k-grid:    6   0   0      0.500
siesta: k-grid:    0   6   0      0.500
siesta: k-grid:    0   0   6      0.500
Naive supercell factors:     5    5    5

superc: Internal auxiliary supercell:     5 x     5 x     5  =     125
superc: Number of atoms, orbitals, and projectors:   1000  13000  16000

outcell: Unit cell vectors (Ang):
        5.496179   -0.007973   -0.007973
       -0.007973    5.496179   -0.007973
       -0.007973   -0.007973    5.496179

outcell: Cell vector modules (Ang)   :    5.496191    5.496191    5.496191
outcell: Cell angles (23,13,12) (deg):     90.1661     90.1661     90.1661
outcell: Cell volume (Ang**3)        :    166.0275
New_DM. Step:     4
Re-using DM from previous geometry...
Re-using DM without extrapolation (not allowed)

InitMesh: MESH =    36 x    36 x    36 =       46656
InitMesh: Mesh cutoff (required, used) =   100.000   118.574 Ry

siesta: iscf   Eharris(eV)      E_KS(eV)   FreeEng(eV)   dDmax  Ef(eV)
siesta:    1    -1030.6592    -1031.3646    -1031.3646  0.0219 -5.0149
siesta:    2    -1030.6861    -1030.6318    -1030.6318  0.0231 -5.0066
siesta:    3    -1030.6499    -1030.7577    -1030.7577  0.0052 -5.0070
siesta:    4    -1030.6497    -1030.6466    -1030.6466  0.0010 -5.0058
siesta:    5    -1030.6497    -1030.6463    -1030.6463  0.0007 -5.0059

siesta: E_KS(eV) =            -1030.6493

siesta: Atomic forces (eV/Ang):
----------------------------------------
   Tot    0.008947    0.008958    0.008965
----------------------------------------
   Max    0.253462
   Res    0.198212    sqrt( Sum f_i^2 / 3N )
----------------------------------------
   Max    0.253462    constrained

Stress-tensor-Voigt (kbar):      -11.20      -11.20      -11.20       -7.48       -7.48       -7.48
(Free)E + p*V (eV/cell)    -1029.4892
Target enthalpy (eV/cell)    -1030.6493

siesta: Stress tensor (static) (eV/Ang**3):
        -0.006987   -0.004669   -0.004669
        -0.004669   -0.006987   -0.004669
        -0.004669   -0.004669   -0.006987

siesta: Pressure (static):         11.19521009  kBar

siesta: Stress tensor (total) (eV/Ang**3):
        -0.006987   -0.004669   -0.004669
        -0.004669   -0.006987   -0.004669
        -0.004669   -0.004669   -0.006987

siesta: Pressure (total):         11.19521009  kBar

mulliken: Mulliken Atomic and Orbital Populations:

Species: Si                  
Atom  Qatom  Qorb
               3s      3s      3py     3pz     3px     3py     3pz     3px     
               3Pdxy   3Pdyz   3Pdz2   3Pdxz   3Pdx2-y2
   1  3.997   0.637   0.573   0.238   0.238   0.238   0.525   0.525   0.525
              0.119   0.119   0.070   0.119   0.070
   2  4.001   0.622   0.580   0.231   0.231   0.231   0.533   0.533   0.533
              0.121   0.121   0.072   0.121   0.072
   3  4.000   0.625   0.579   0.236   0.232   0.236   0.528   0.531   0.528
              0.120   0.121   0.072   0.121   0.071
   4  4.001   0.634   0.575   0.234   0.238   0.234   0.529   0.527   0.529
              0.120   0.120   0.071   0.120   0.071
   5  4.000   0.625   0.579   0.232   0.236   0.236   0.531   0.528   0.528
              0.121   0.121   0.071   0.120   0.072
   6  4.001   0.634   0.575   0.238   0.234   0.234   0.527   0.529   0.529
              0.120   0.120   0.071   0.120   0.071
   7  4.000   0.625   0.579   0.236   0.236   0.232   0.528   0.528   0.531
              0.121   0.120   0.071   0.121   0.072
   8  4.001   0.634   0.575   0.234   0.234   0.238   0.529   0.529   0.527
              0.120   0.120   0.071   0.120   0.071

mulliken: Qtot =       32.000

cgvc: Finished line minimization    1.  Mean atomic displacement =    0.1176

* Maximum dynamic memory allocated =    84 MB

siesta:                 ==============================
                            Begin CG move =      4
                        ==============================

outcoor: Atomic coordinates (Ang):                          
   -0.00296398   -0.00296355   -0.00296010   1       1  Si
    1.43594674    1.43594699    1.43594710   1       2  Si
    2.79063493    2.79063550    0.01203548   1       3  Si
    4.22888787    4.22888767    1.44775814   1       4  Si
    2.79063484    0.01203306    2.79063541   1       5  Si
    4.22888858    1.44775949    4.22888588   1       6  Si
    0.01203270    2.79063553    2.79063580   1       7  Si
    1.44775933    4.22888819    4.22888624   1       8  Si
 Kpoints in:          108 . Kpoints trimmed:          108

siesta: k-grid: Number of k-points =   108
siesta: k-grid: Cutoff (effective) =    16.728 Ang
siesta: k-grid: Supercell and displacements
siesta: k-grid:    6   0   0      0.500
siesta: k-grid:    0   6   0      0.500
siesta: k-grid:    0   0   6      0.500
Naive supercell factors:     5    5    5

superc: Internal auxiliary supercell:     5 x     5 x     5  =     125
superc: Number of atoms, orbitals, and projectors:   1000  13000  16000

outcell: Unit cell vectors (Ang):
        5.576023    0.013036    0.013037
        0.013036    5.576023    0.013037
        0.013037    0.013037    5.576023

outcell: Cell vector modules (Ang)   :    5.576054    5.576054    5.576054
outcell: Cell angles (23,13,12) (deg):     89.7318     89.7318     89.7318
outcell: Cell volume (Ang**3)        :    173.3671
New_DM. Step:     5
Re-using DM from previous geometry...
Re-using DM without extrapolation (not allowed)
Density Matrix sparsity pattern changed.

InitMesh: MESH =    36 x    36 x    36 =       46656
InitMesh: Mesh cutoff (required, used) =   100.000   115.205 Ry

siesta: iscf   Eharris(eV)      E_KS(eV)   FreeEng(eV)   dDmax  Ef(eV)
siesta:    1    -1030.5281    -1029.4377    -1029.4377  0.0336 -4.8328
siesta:    2    -1030.5254    -1030.5109    -1030.5109  0.0135 -4.8306
siesta:    3    -1030.5184    -1030.4995    -1030.4995  0.0035 -4.8328
siesta:    4    -1030.5179    -1030.5163    -1030.5163  0.0014 -4.8346
siesta:    5    -1030.5178    -1030.5233    -1030.5233  0.0005 -4.8354

siesta: E_KS(eV) =            -1030.5211

siesta: Atomic forces (eV/Ang):
----------------------------------------
   Tot   -0.006453   -0.006458   -0.006447
----------------------------------------
   Max    0.470015
   Res    0.449222    sqrt( Sum f_i^2 / 3N )
----------------------------------------
   Max    0.470015    constrained

Stress-tensor-Voigt (kbar):       23.00       23.00       23.00       13.96       13.96       13.96
(Free)E + p*V (eV/cell)    -1033.0100
Target enthalpy (eV/cell)    -1030.5211

siesta: Stress tensor (static) (eV/Ang**3):
         0.014356    0.008713    0.008714
         0.008713    0.014356    0.008714
         0.008714    0.008714    0.014356

siesta: Pressure (static):        -23.00102952  kBar

siesta: Stress tensor (total) (eV/Ang**3):
         0.014356    0.008713    0.008714
         0.008713    0.014356    0.008714
         0.008714    0.008714    0.014356

siesta: Pressure (total):        -23.00102952  kBar

mulliken: Mulliken Atomic and Orbital Populations:

Species: Si                  
Atom  Qatom  Qorb
               3s      3s      3py     3pz     3px     3py     3pz     3px     
               3Pdxy   3Pdyz   3Pdz2   3Pdxz   3Pdx2-y2
   1  4.000   0.666   0.559   0.268   0.268   0.268   0.498   0.498   0.498
              0.114   0.114   0.066   0.114   0.066
   2  4.001   0.663   0.560   0.268   0.268   0.268   0.499   0.499   0.499
              0.114   0.114   0.067   0.114   0.067
   3  4.000   0.664   0.560   0.268   0.268   0.268   0.499   0.499   0.499
              0.114   0.114   0.067   0.114   0.067
   4  4.000   0.666   0.559   0.268   0.269   0.268   0.498   0.498   0.498
              0.114   0.114   0.066   0.114   0.067
   5  4.000   0.664   0.560   0.268   0.268   0.268   0.499   0.499   0.499
              0.114   0.114   0.067   0.114   0.067
   6  4.000   0.666   0.559   0.269   0.268   0.268   0.498   0.498   0.498
              0.114   0.114   0.067   0.114   0.066
   7  4.000   0.664   0.560   0.268   0.268   0.268   0.499   0.499   0.499
              0.114   0.114   0.067   0.114   0.067
   8  4.000   0.666   0.559   0.268   0.268   0.269   0.498   0.498   0.498
              0.114   0.114   0.067   0.114   0.066

mulliken: Qtot =       32.000

* Maximum dynamic memory allocated =    84 MB

siesta:                 ==============================
                            Begin CG move =      5
                        ==============================

outcoor: Atomic coordinates (Ang):                          
    0.01608400    0.01608415    0.01608473   1       1  Si
    1.39907725    1.39907725    1.39907686   1       2  Si
    2.77067394    2.77067402    0.01467107   1       3  Si
    4.15327418    4.15327408    1.39801370   1       4  Si
    2.77067434    0.01467095    2.77067461   1       5  Si
    4.15327417    1.39801405    4.15327359   1       6  Si
    0.01467106    2.77067468    2.77067468   1       7  Si
    1.39801407    4.15327432    4.15327368   1       8  Si
 Kpoints in:          108 . Kpoints trimmed:          108

siesta: k-grid: Number of k-points =   108
siesta: k-grid: Cutoff (effective) =    16.562 Ang
siesta: k-grid: Supercell and displacements
siesta: k-grid:    6   0   0      0.500
siesta: k-grid:    0   6   0      0.500
siesta: k-grid:    0   0   6      0.500
Naive supercell factors:     5    5    5

superc: Internal auxiliary supercell:     5 x     5 x     5  =     125
superc: Number of atoms, orbitals, and projectors:   1000  13000  16000

outcell: Unit cell vectors (Ang):
        5.520700   -0.001521   -0.001521
       -0.001521    5.520700   -0.001521
       -0.001521   -0.001521    5.520700

outcell: Cell vector modules (Ang)   :    5.520700    5.520700    5.520700
outcell: Cell angles (23,13,12) (deg):     90.0316     90.0316     90.0316
outcell: Cell volume (Ang**3)        :    168.2606
New_DM. Step:     6
Re-using DM from previous geometry...
Re-using DM without extrapolation (not allowed)
Density Matrix sparsity pattern changed.

InitMesh: MESH =    36 x    36 x    36 =       46656
InitMesh: Mesh cutoff (required, used) =   100.000   117.522 Ry

siesta: iscf   Eharris(eV)      E_KS(eV)   FreeEng(eV)   dDmax  Ef(eV)
siesta:    1    -1030.6770    -1031.3799    -1031.3799  0.0226 -4.9977
siesta:    2    -1030.6761    -1030.6698    -1030.6698  0.0086 -5.0027
siesta:    3    -1030.6730    -1030.6793    -1030.6793  0.0021 -4.9857
siesta:    4    -1030.6728    -1030.6712    -1030.6712  0.0009 -4.9861

siesta: E_KS(eV) =            -1030.6681

siesta: Atomic forces (eV/Ang):
----------------------------------------
   Tot    0.008014    0.008016    0.008004
----------------------------------------
   Max    0.092938
   Res    0.064373    sqrt( Sum f_i^2 / 3N )
----------------------------------------
   Max    0.092938    constrained

Stress-tensor-Voigt (kbar):        1.20        1.20        1.20        0.65        0.65        0.65
(Free)E + p*V (eV/cell)    -1030.7944
Target enthalpy (eV/cell)    -1030.6681

siesta: Stress tensor (static) (eV/Ang**3):
         0.000750    0.000406    0.000406
         0.000406    0.000750    0.000406
         0.000406    0.000406    0.000750

siesta: Pressure (static):         -1.20217200  kBar

siesta: Stress tensor (total) (eV/Ang**3):
         0.000750    0.000406    0.000406
         0.000406    0.000750    0.000406
         0.000406    0.000406    0.000750

siesta: Pressure (total):         -1.20217200  kBar

mulliken: Mulliken Atomic and Orbital Populations:

Species: Si                  
Atom  Qatom  Qorb
               3s      3s      3py     3pz     3px     3py     3pz     3px     
               3Pdxy   3Pdyz   3Pdz2   3Pdxz   3Pdx2-y2
   1  3.999   0.647   0.568   0.247   0.247   0.247   0.517   0.517   0.517
              0.118   0.118   0.069   0.118   0.069
   2  4.000   0.635   0.574   0.241   0.241   0.241   0.523   0.523   0.523
              0.119   0.119   0.070   0.119   0.070
   3  4.000   0.638   0.573   0.246   0.242   0.246   0.519   0.522   0.519
              0.118   0.119   0.070   0.119   0.070
   4  4.000   0.644   0.570   0.244   0.246   0.244   0.520   0.518   0.520
              0.118   0.118   0.069   0.118   0.070
   5  4.000   0.638   0.573   0.242   0.246   0.246   0.522   0.519   0.519
              0.119   0.119   0.070   0.118   0.070
   6  4.000   0.644   0.570   0.246   0.244   0.244   0.518   0.520   0.520
              0.118   0.118   0.070   0.118   0.069
   7  4.000   0.638   0.573   0.246   0.246   0.242   0.519   0.519   0.522
              0.119   0.118   0.070   0.119   0.070
   8  4.000   0.644   0.570   0.244   0.244   0.246   0.520   0.520   0.518
              0.118   0.118   0.070   0.118   0.069

mulliken: Qtot =       32.000

cgvc: Finished line minimization    2.  Mean atomic displacement =    0.0361

* Maximum dynamic memory allocated =    84 MB

siesta:                 ==============================
                            Begin CG move =      6
                        ==============================

outcoor: Atomic coordinates (Ang):                          
    0.00897933    0.00897989    0.00898054   1       1  Si
    1.39492411    1.39492436    1.39492793   1       2  Si
    2.79257632    2.79257585    0.01259699   1       3  Si
    4.17897677    4.17897709    1.39629738   1       4  Si
    2.79257472    0.01260011    2.79257271   1       5  Si
    4.17897771    1.39629904    4.17897649   1       6  Si
    0.01259908    2.79257482    2.79257283   1       7  Si
    1.39629925    4.17897751    4.17897651   1       8  Si
 Kpoints in:          108 . Kpoints trimmed:          108

siesta: k-grid: Number of k-points =   108
siesta: k-grid: Cutoff (effective) =    16.618 Ang
siesta: k-grid: Supercell and displacements
siesta: k-grid:    0   0   6      0.500
siesta: k-grid:    6   0   0      0.500
siesta: k-grid:    0   6   0      0.500
Naive supercell factors:     5    5    5

superc: Internal auxiliary supercell:     5 x     5 x     5  =     125
superc: Number of atoms, orbitals, and projectors:   1000  13000  16000

outcell: Unit cell vectors (Ang):
        5.539469    0.002043    0.002042
        0.002043    5.539469    0.002042
        0.002042    0.002042    5.539469

outcell: Cell vector modules (Ang)   :    5.539470    5.539470    5.539470
outcell: Cell angles (23,13,12) (deg):     89.9578     89.9578     89.9577
outcell: Cell volume (Ang**3)        :    169.9825
New_DM. Step:     7
Re-using DM from previous geometry...
Re-using DM without extrapolation (not allowed)
Density Matrix sparsity pattern changed.

InitMesh: MESH =    36 x    36 x    36 =       46656
InitMesh: Mesh cutoff (required, used) =   100.000   116.727 Ry

siesta: iscf   Eharris(eV)      E_KS(eV)   FreeEng(eV)   dDmax  Ef(eV)
siesta:    1    -1030.6732    -1030.3954    -1030.3954  0.0104 -4.9742
siesta:    2    -1030.7120    -1030.6369    -1030.6369  0.0282 -4.9930
siesta:    3    -1030.6614    -1030.5534    -1030.5534  0.0069 -4.9783
siesta:    4    -1030.6614    -1030.6566    -1030.6566  0.0005 -4.9795

siesta: E_KS(eV) =            -1030.6581

siesta: Atomic forces (eV/Ang):
----------------------------------------
   Tot   -0.005167   -0.005168   -0.005310
----------------------------------------
   Max    0.116958
   Res    0.103879    sqrt( Sum f_i^2 / 3N )
----------------------------------------
   Max    0.116958    constrained

Stress-tensor-Voigt (kbar):        8.89        8.89        8.89        0.76        0.76        0.76
(Free)E + p*V (eV/cell)    -1031.6013
Target enthalpy (eV/cell)    -1030.6581

siesta: Stress tensor (static) (eV/Ang**3):
         0.005549    0.000475    0.000475
         0.000475    0.005549    0.000475
         0.000475    0.000475    0.005548

siesta: Pressure (static):         -8.89024913  kBar

siesta: Stress tensor (total) (eV/Ang**3):
         0.005549    0.000475    0.000475
         0.000475    0.005549    0.000475
         0.000475    0.000475    0.005548

siesta: Pressure (total):         -8.89024913  kBar

mulliken: Mulliken Atomic and Orbital Populations:

Species: Si                  
Atom  Qatom  Qorb
               3s      3s      3py     3pz     3px     3py     3pz     3px     
               3Pdxy   3Pdyz   3Pdz2   3Pdxz   3Pdx2-y2
   1  4.001   0.632   0.575   0.247   0.247   0.247   0.518   0.518   0.518
              0.119   0.119   0.070   0.119   0.070
   2  3.999   0.665   0.559   0.258   0.258   0.258   0.506   0.506   0.506
              0.115   0.115   0.067   0.115   0.067
   3  3.999   0.656   0.563   0.252   0.261   0.252   0.512   0.506   0.512
              0.117   0.116   0.067   0.116   0.069
   4  4.001   0.646   0.568   0.252   0.246   0.252   0.514   0.518   0.514
              0.117   0.118   0.070   0.118   0.068
   5  3.999   0.656   0.563   0.261   0.252   0.252   0.506   0.512   0.512
              0.116   0.116   0.068   0.117   0.068
   6  4.001   0.646   0.568   0.246   0.252   0.252   0.518   0.514   0.514
              0.118   0.118   0.069   0.117   0.069
   7  3.999   0.656   0.563   0.252   0.252   0.261   0.512   0.512   0.506
              0.116   0.117   0.068   0.116   0.068
   8  4.001   0.646   0.568   0.252   0.252   0.246   0.514   0.514   0.518
              0.118   0.117   0.069   0.118   0.069

mulliken: Qtot =       32.000

* Maximum dynamic memory allocated =    84 MB

siesta:                 ==============================
                            Begin CG move =      7
                        ==============================

outcoor: Atomic coordinates (Ang):                          
    0.01439753    0.01439778    0.01439838   1       1  Si
    1.39809693    1.39809699    1.39809754   1       2  Si
    2.77588462    2.77588457    0.01417798   1       3  Si
    4.15939287    4.15939287    1.39761024   1       4  Si
    2.77588454    0.01417863    2.77588427   1       5  Si
    4.15939309    1.39761090    4.15939235   1       6  Si
    0.01417847    2.77588483    2.77588435   1       7  Si
    1.39761096    4.15939316    4.15939243   1       8  Si
 Kpoints in:          108 . Kpoints trimmed:          108

siesta: k-grid: Number of k-points =   108
siesta: k-grid: Cutoff (effective) =    16.576 Ang
siesta: k-grid: Supercell and displacements
siesta: k-grid:    6   0   0      0.500
siesta: k-grid:    0   6   0      0.500
siesta: k-grid:    0   0   6      0.500
Naive supercell factors:     5    5    5

superc: Internal auxiliary supercell:     5 x     5 x     5  =     125
superc: Number of atoms, orbitals, and projectors:   1000  13000  16000

outcell: Unit cell vectors (Ang):
        5.525171   -0.000672   -0.000672
       -0.000672    5.525171   -0.000672
       -0.000672   -0.000672    5.525171

outcell: Cell vector modules (Ang)   :    5.525171    5.525171    5.525171
outcell: Cell angles (23,13,12) (deg):     90.0139     90.0139     90.0139
outcell: Cell volume (Ang**3)        :    168.6698
New_DM. Step:     8
Re-using DM from previous geometry...
Re-using DM without extrapolation (not allowed)
Density Matrix sparsity pattern changed.

InitMesh: MESH =    36 x    36 x    36 =       46656
InitMesh: Mesh cutoff (required, used) =   100.000   117.332 Ry

siesta: iscf   Eharris(eV)      E_KS(eV)   FreeEng(eV)   dDmax  Ef(eV)
siesta:    1    -1030.6806    -1030.8614    -1030.8614  0.0076 -4.9876
siesta:    2    -1030.7023    -1030.6601    -1030.6601  0.0202 -4.9880
siesta:    3    -1030.6739    -1030.7414    -1030.7414  0.0050 -4.9851
siesta:    4    -1030.6739    -1030.6722    -1030.6722  0.0004 -4.9841

siesta: E_KS(eV) =            -1030.6724

siesta: Atomic forces (eV/Ang):
----------------------------------------
   Tot    0.001975    0.001978    0.001961
----------------------------------------
   Max    0.038485
   Res    0.030678    sqrt( Sum f_i^2 / 3N )
----------------------------------------
   Max    0.038485    constrained

Stress-tensor-Voigt (kbar):        2.87        2.87        2.87        0.83        0.83        0.83
(Free)E + p*V (eV/cell)    -1030.9745
Target enthalpy (eV/cell)    -1030.6724

siesta: Stress tensor (static) (eV/Ang**3):
         0.001791    0.000520    0.000520
         0.000520    0.001791    0.000520
         0.000520    0.000520    0.001791

siesta: Pressure (static):         -2.86980683  kBar

siesta: Stress tensor (total) (eV/Ang**3):
         0.001791    0.000520    0.000520
         0.000520    0.001791    0.000520
         0.000520    0.000520    0.001791

siesta: Pressure (total):         -2.86980683  kBar

mulliken: Mulliken Atomic and Orbital Populations:

Species: Si                  
Atom  Qatom  Qorb
               3s      3s      3py     3pz     3px     3py     3pz     3px     
               3Pdxy   3Pdyz   3Pdz2   3Pdxz   3Pdx2-y2
   1  3.999   0.644   0.570   0.247   0.247   0.247   0.517   0.517   0.517
              0.118   0.118   0.069   0.118   0.069
   2  4.000   0.643   0.570   0.245   0.245   0.245   0.519   0.519   0.519
              0.118   0.118   0.070   0.118   0.070
   3  4.000   0.642   0.570   0.247   0.246   0.247   0.518   0.518   0.518
              0.118   0.118   0.070   0.118   0.069
   4  4.000   0.645   0.569   0.246   0.246   0.246   0.519   0.518   0.519
              0.118   0.118   0.069   0.118   0.069
   5  4.000   0.642   0.570   0.246   0.247   0.247   0.518   0.518   0.518
              0.118   0.118   0.069   0.118   0.070
   6  4.000   0.645   0.569   0.246   0.246   0.246   0.518   0.519   0.519
              0.118   0.118   0.069   0.118   0.069
   7  4.000   0.642   0.570   0.247   0.247   0.246   0.518   0.518   0.518
              0.118   0.118   0.069   0.118   0.070
   8  4.000   0.645   0.569   0.246   0.246   0.246   0.519   0.519   0.518
              0.118   0.118   0.069   0.118   0.069

mulliken: Qtot =       32.000

* Maximum dynamic memory allocated =    84 MB

outcoor: Relaxed atomic coordinates (Ang):                  
    0.01439753    0.01439778    0.01439838   1       1  Si
    1.39809693    1.39809699    1.39809754   1       2  Si
    2.77588462    2.77588457    0.01417798   1       3  Si
    4.15939287    4.15939287    1.39761024   1       4  Si
    2.77588454    0.01417863    2.77588427   1       5  Si
    4.15939309    1.39761090    4.15939235   1       6  Si
    0.01417847    2.77588483    2.77588435   1       7  Si
    1.39761096    4.15939316    4.15939243   1       8  Si

outcell: Unit cell vectors (Ang):
        5.525171   -0.000672   -0.000672
       -0.000672    5.525171   -0.000672
       -0.000672   -0.000672    5.525171

outcell: Cell vector modules (Ang)   :    5.525171    5.525171    5.525171
outcell: Cell angles (23,13,12) (deg):     90.0139     90.0139     90.0139
outcell: Cell volume (Ang**3)        :    168.6698

coxmol: Writing XMOL coordinates into file si.xyz                                                          
Writing WFSX for selected k-points in si.selected.WFSX

writewave: Wave Functions Coefficients

     Number of k-points =        1
        Number of Spins =        1
   Number of basis orbs =      104


                                                                  ******
            k-point =        1    0.000000  0.000000  0.000000
     Spin component =        1
 Num. wavefunctions =       50
Use readwfsx utility to print wavefunction coefficients from WFSX file
Computing bands...

siesta: Band k vectors (Bohr**-1):
  ik           k
   1    0.307863    0.307863    0.307863
   2    0.295548    0.295548    0.295548
   3    0.283234    0.283234    0.283234
   4    0.270919    0.270919    0.270919
   5    0.258605    0.258605    0.258605
   6    0.246290    0.246290    0.246290
   7    0.233976    0.233976    0.233976
   8    0.221661    0.221661    0.221661
   9    0.209347    0.209347    0.209347
  10    0.197032    0.197032    0.197032
  11    0.184718    0.184718    0.184718
  12    0.172403    0.172403    0.172403
  13    0.160089    0.160089    0.160089
  14    0.147774    0.147774    0.147774
  15    0.135460    0.135460    0.135460
  16    0.123145    0.123145    0.123145
  17    0.110831    0.110831    0.110831
  18    0.098516    0.098516    0.098516
  19    0.086202    0.086202    0.086202
  20    0.073887    0.073887    0.073887
  21    0.061573    0.061573    0.061573
  22    0.049258    0.049258    0.049258
  23    0.036944    0.036944    0.036944
  24    0.024629    0.024629    0.024629
  25    0.012315    0.012315    0.012315
  26    0.000000    0.000000    0.000000
  27    0.020524    0.000000    0.000000
  28    0.041048    0.000000    0.000000
  29    0.061573    0.000000    0.000000
  30    0.082097    0.000000    0.000000
  31    0.102621    0.000000    0.000000
  32    0.123145    0.000000    0.000000
  33    0.143669    0.000000    0.000000
  34    0.164193    0.000000    0.000000
  35    0.184718    0.000000    0.000000
  36    0.205242    0.000000    0.000000
  37    0.225766    0.000000    0.000000
  38    0.246290    0.000000    0.000000
  39    0.266814    0.000000    0.000000
  40    0.287339    0.000000    0.000000
  41    0.307863    0.000000    0.000000
  42    0.328387    0.000000    0.000000
  43    0.348911    0.000000    0.000000
  44    0.369435    0.000000    0.000000
  45    0.389959    0.000000    0.000000
  46    0.410484    0.000000    0.000000
  47    0.431008    0.000000    0.000000
  48    0.451532    0.000000    0.000000
  49    0.472056    0.000000    0.000000
  50    0.492580    0.000000    0.000000
  51    0.513104    0.000000    0.000000
  52    0.533629    0.000000    0.000000
  53    0.554153    0.000000    0.000000
  54    0.574677    0.000000    0.000000
  55    0.595201    0.000000    0.000000
  56    0.615725    0.000000    0.000000
  57    0.615725    0.015393    0.015393
  58    0.615725    0.030786    0.030786
  59    0.615725    0.046179    0.046179
  60    0.615725    0.061573    0.061573
  61    0.615725    0.076966    0.076966
  62    0.615725    0.092359    0.092359
  63    0.615725    0.107752    0.107752
  64    0.615725    0.123145    0.123145
  65    0.615725    0.138538    0.138538
  66    0.615725    0.153931    0.153931
  67    0.598133    0.149533    0.149533
  68    0.580541    0.145135    0.145135
  69    0.562949    0.140737    0.140737
  70    0.545357    0.136339    0.136339
  71    0.527765    0.131941    0.131941
  72    0.510172    0.127543    0.127543
  73    0.492580    0.123145    0.123145
  74    0.474988    0.118747    0.118747
  75    0.457396    0.114349    0.114349
  76    0.439804    0.109951    0.109951
  77    0.422212    0.105553    0.105553
  78    0.404620    0.101155    0.101155
  79    0.387027    0.096757    0.096757
  80    0.369435    0.092359    0.092359
  81    0.351843    0.087961    0.087961
  82    0.334251    0.083563    0.083563
  83    0.316659    0.079165    0.079165
  84    0.299067    0.074767    0.074767
  85    0.281474    0.070369    0.070369
  86    0.263882    0.065971    0.065971
  87    0.246290    0.061573    0.061573
  88    0.228698    0.057175    0.057175
  89    0.211106    0.052776    0.052776
  90    0.193514    0.048378    0.048378
  91    0.175922    0.043980    0.043980
  92    0.158329    0.039582    0.039582
  93    0.140737    0.035184    0.035184
  94    0.123145    0.030786    0.030786
  95    0.105553    0.026388    0.026388
  96    0.087961    0.021990    0.021990
  97    0.070369    0.017592    0.017592
  98    0.052776    0.013194    0.013194
  99    0.035184    0.008796    0.008796
 100    0.017592    0.004398    0.004398
 101    0.000000    0.000000    0.000000

siesta: Band energies (eV):
  ik is    eps
   1  1 -14.86 -14.84 -14.84 -14.84 -12.19 -12.19 -12.19 -12.15  -6.60  -6.60
         -6.60  -6.59  -6.59  -6.58  -6.58  -6.58  -4.01  -3.99  -3.99  -3.99
         -1.95  -1.95  -1.95  -1.94  -1.94  -1.91  -1.91  -1.91   3.49   3.51
          3.51   3.51   5.43   5.43   5.43   5.50   5.50   5.58   5.58   5.58
          5.92   5.95   5.95   5.95   6.03   6.03   6.03   6.16   6.16   6.18
          6.18   6.18   8.31   8.34   8.34   8.34  16.38  16.40  16.40  16.40
         17.34  17.34  17.34  17.35  17.35  17.35  17.35  17.35  19.32  19.32
         19.32  19.36  19.36  19.36  19.37  19.37  19.85  19.85  19.85  19.95
         28.81  28.81  28.81  28.83  28.83  28.83  28.84  28.84  65.26  65.50
         65.50  65.51  77.04  77.04  77.08  77.49  77.49  77.75  77.78  77.78
        114.72 116.46 116.46 116.47
   2  1 -14.86 -14.84 -14.84 -14.84 -12.19 -12.19 -12.19 -12.16  -6.60  -6.60
         -6.60  -6.59  -6.59  -6.58  -6.58  -6.58  -4.01  -3.99  -3.99  -3.99
         -1.95  -1.95  -1.95  -1.94  -1.94  -1.91  -1.91  -1.91   3.49   3.51
          3.51   3.51   5.48   5.48   5.48   5.54   5.54   5.58   5.58   5.58
          5.93   5.94   5.94   5.94   6.03   6.03   6.03   6.12   6.12   6.13
          6.13   6.13   8.31   8.34   8.34   8.34  16.39  16.40  16.40  16.40
         17.34  17.34  17.34  17.35  17.35  17.35  17.36  17.36  19.32  19.32
         19.32  19.36  19.36  19.37  19.37  19.37  19.88  19.88  19.88  19.94
         28.81  28.81  28.81  28.83  28.83  28.84  28.84  28.84  65.36  65.51
         65.51  65.54  77.44  77.44  77.72  77.75  77.75  77.96  77.98  77.98
        114.95 116.35 116.35 116.36
   3  1 -14.89 -14.84 -14.84 -14.84 -12.18 -12.18 -12.18 -12.10  -6.66  -6.66
         -6.66  -6.62  -6.62  -6.62  -6.58  -6.58  -4.01  -3.91  -3.91  -3.91
         -1.96  -1.96  -1.96  -1.94  -1.94  -1.87  -1.87  -1.87   3.47   3.48
          3.48   3.49   5.04   5.04   5.04   5.17   5.17   5.55   5.55   5.55
          5.82   5.99   5.99   5.99   6.07   6.07   6.07   6.51   6.51   6.62
          6.62   6.62   8.36   8.36   8.36   8.40  16.29  16.38  16.38  16.38
         17.22  17.22  17.26  17.26  17.26  17.31  17.31  17.31  19.31  19.31
         19.31  19.32  19.32  19.32  19.45  19.45  19.48  19.48  19.48  20.10
         28.73  28.73  28.73  28.86  28.86  28.86  28.87  28.87  63.86  64.84
         64.84  64.85  70.62  70.62  70.63  74.82  74.82  74.83  77.36  77.36
        111.67 115.64 115.64 115.65
   4  1 -14.97 -14.83 -14.83 -14.83 -12.16 -12.16 -12.16 -11.98  -6.81  -6.81
         -6.81  -6.66  -6.66  -6.66  -6.57  -6.57  -3.99  -3.76  -3.76  -3.76
         -1.99  -1.99  -1.99  -1.93  -1.93  -1.80  -1.80  -1.80   3.37   3.37
          3.37   3.45   4.63   4.63   4.63   4.78   4.78   5.51   5.51   5.51
          5.64   6.06   6.06   6.06   6.14   6.14   6.14   6.96   6.96   7.17
          7.17   7.17   8.43   8.43   8.43   8.54  16.13  16.30  16.30  16.30
         16.96  16.96  17.07  17.07  17.07  17.26  17.26  17.26  18.84  18.84
         18.84  19.22  19.22  19.22  19.32  19.32  19.32  19.61  19.61  20.39
         28.50  28.50  28.50  28.95  28.95  29.01  29.01  29.01  59.43  59.43
         59.43  60.87  67.37  67.37  67.38  69.84  69.84  69.84  77.05  77.05
        106.40 108.62 108.62 108.64
   5  1 -15.08 -14.81 -14.81 -14.81 -12.12 -12.12 -12.12 -11.82  -7.00  -7.00
         -7.00  -6.72  -6.72  -6.72  -6.56  -6.56  -3.97  -3.58  -3.58  -3.58
         -2.01  -2.01  -2.01  -1.91  -1.91  -1.68  -1.68  -1.68   3.15   3.15
          3.15   3.41   4.36   4.36   4.36   4.39   4.39   5.42   5.47   5.47
          5.47   6.15   6.15   6.15   6.23   6.23   6.23   7.43   7.43   7.71
          7.71   7.71   8.56   8.56   8.56   8.70  15.95  16.11  16.11  16.11
         16.64  16.64  16.80  16.80  16.80  17.22  17.22  17.22  18.25  18.25
         18.25  19.07  19.07  19.07  19.32  19.32  19.32  19.79  19.79  20.77
         28.14  28.14  28.14  29.07  29.07  29.28  29.28  29.29  52.44  52.44
         52.44  56.80  64.76  64.76  64.76  67.27  67.27  67.27  76.56  76.56
         98.58  98.58  98.59 100.90
   6  1 -15.20 -14.80 -14.80 -14.80 -12.08 -12.08 -12.08 -11.61  -7.23  -7.23
         -7.23  -6.79  -6.79  -6.79  -6.53  -6.53  -3.94  -3.40  -3.40  -3.40
         -2.01  -2.01  -2.01  -1.90  -1.90  -1.53  -1.53  -1.53   2.80   2.80
          2.80   3.33   4.02   4.02   4.24   4.24   4.24   5.20   5.42   5.42
          5.42   6.26   6.26   6.26   6.33   6.33   6.33   7.91   7.91   8.15
          8.15   8.15   8.83   8.83   8.83   8.83  15.78  15.78  15.78  15.80
         16.26  16.26  16.47  16.47  16.47  17.17  17.17  17.17  17.87  17.87
         17.87  18.88  18.88  18.88  19.35  19.35  19.35  19.97  19.97  21.21
         27.68  27.68  27.68  29.21  29.21  29.68  29.68  29.68  46.62  46.62
         46.62  52.29  60.61  60.61  60.61  67.28  67.28  67.28  75.90  75.90
         90.18  90.18  90.19  96.04
   7  1 -15.34 -14.77 -14.77 -14.77 -12.03 -12.03 -12.03 -11.37  -7.46  -7.46
         -7.46  -6.88  -6.88  -6.87  -6.50  -6.50  -3.91  -3.28  -3.28  -3.28
         -1.93  -1.93  -1.93  -1.88  -1.88  -1.35  -1.34  -1.34   2.36   2.36
          2.36   3.22   3.67   3.67   4.22   4.22   4.22   5.01   5.38   5.38
          5.38   6.39   6.39   6.39   6.44   6.44   6.44   8.39   8.39   8.40
          8.40   8.40   8.90   9.32   9.32   9.32  15.38  15.38  15.38  15.70
         15.86  15.86  16.10  16.10  16.10  17.05  17.05  17.05  17.75  17.75
         17.75  18.64  18.64  18.64  19.40  19.40  19.40  20.14  20.14  21.69
         27.11  27.11  27.11  29.37  29.37  30.19  30.19  30.19  41.92  41.92
         41.92  47.96  57.66  57.66  57.66  66.94  66.94  66.94  75.09  75.09
         84.87  84.87  84.87  91.88
   8  1 -15.48 -14.74 -14.74 -14.74 -11.98 -11.97 -11.97 -11.11  -7.70  -7.70
         -7.70  -6.97  -6.97  -6.97  -6.46  -6.46  -3.87  -3.23  -3.23  -3.23
         -1.86  -1.86  -1.77  -1.77  -1.77  -1.13  -1.13  -1.13   1.90   1.90
          1.90   3.05   3.35   3.35   4.26   4.26   4.26   4.88   5.35   5.35
          5.35   6.52   6.52   6.52   6.56   6.56   6.56   8.57   8.57   8.57
          8.87   8.87   8.89   9.91   9.91   9.91  14.96  14.96  14.96  15.46
         15.46  15.66  15.70  15.70  15.70  16.87  16.87  16.87  17.81  17.81
         17.81  18.36  18.36  18.36  19.49  19.49  19.49  20.29  20.29  22.21
         26.48  26.48  26.48  29.55  29.55  30.77  30.77  30.78  38.17  38.17
         38.17  44.17  55.82  55.82  55.82  66.08  66.08  66.08  74.20  74.20
         82.21  82.21  82.21  88.17
   9  1 -15.62 -14.71 -14.71 -14.71 -11.91 -11.91 -11.91 -10.83  -7.94  -7.94
         -7.94  -7.07  -7.07  -7.07  -6.42  -6.42  -3.82  -3.25  -3.25  -3.25
         -1.84  -1.84  -1.51  -1.51  -1.51  -0.89  -0.89  -0.89   1.41   1.41
          1.41   2.84   3.05   3.05   4.32   4.32   4.32   4.82   5.33   5.33
          5.33   6.64   6.64   6.64   6.67   6.67   6.67   8.73   8.73   8.73
          8.79   9.32   9.32  10.52  10.52  10.52  14.55  14.55  14.55  15.08
         15.08  15.29  15.29  15.29  15.69  16.69  16.69  16.69  17.93  17.93
         17.93  18.05  18.05  18.05  19.61  19.62  19.62  20.42  20.42  22.79
         25.82  25.82  25.82  29.74  29.74  31.36  31.36  31.36  35.24  35.24
         35.24  41.07  54.88  54.88  54.88  64.78  64.78  64.78  73.32  73.32
         81.19  81.20  81.20  84.64
  10  1 -15.77 -14.67 -14.67 -14.67 -11.85 -11.85 -11.85 -10.52  -8.16  -8.16
         -8.16  -7.17  -7.17  -7.17  -6.38  -6.38  -3.77  -3.33  -3.33  -3.33
         -1.83  -1.83  -1.20  -1.20  -1.20  -0.63  -0.63  -0.63   0.93   0.93
          0.93   2.58   2.78   2.78   4.40   4.40   4.40   4.81   5.32   5.32
          5.32   6.76   6.76   6.76   6.79   6.79   6.79   8.60   8.90   8.90
          8.90   9.72   9.72  11.14  11.14  11.14  14.14  14.14  14.14  14.74
         14.74  14.87  14.87  14.87  15.77  16.55  16.55  16.55  17.70  17.71
         17.71  18.08  18.08  18.08  19.78  19.78  19.78  20.53  20.53  23.41
         25.13  25.13  25.13  29.94  29.94  31.63  31.63  31.63  33.22  33.22
         33.22  38.62  54.62  54.62  54.62  63.13  63.13  63.13  72.57  72.57
         80.91  80.92  80.92  81.16
  11  1 -15.91 -14.62 -14.62 -14.62 -11.80 -11.80 -11.80 -10.20  -8.37  -8.37
         -8.37  -7.27  -7.27  -7.27  -6.32  -6.32  -3.71  -3.43  -3.43  -3.43
         -1.82  -1.82  -0.84  -0.84  -0.84  -0.34  -0.34  -0.34   0.45   0.45
          0.45   2.29   2.54   2.54   4.50   4.50   4.50   4.85   5.31   5.31
          5.31   6.86   6.86   6.86   6.90   6.90   6.90   8.34   9.09   9.09
          9.09  10.04  10.04  11.73  11.73  11.73  13.73  13.73  13.73  14.46
         14.46  14.46  14.50  14.50  15.89  16.46  16.46  16.46  17.34  17.34
         17.34  18.22  18.22  18.22  19.98  19.98  19.98  20.62  20.62  24.07
         24.46  24.46  24.46  30.15  30.15  30.49  30.49  30.49  32.99  32.99
         32.99  36.77  54.86  54.86  54.86  61.11  61.11  61.11  72.10  72.10
         77.67  80.76  80.77  80.77
  12  1 -16.04 -14.57 -14.57 -14.57 -11.75 -11.75 -11.75  -9.87  -8.55  -8.55
         -8.55  -7.37  -7.37  -7.37  -6.26  -6.26  -3.64  -3.55  -3.55  -3.55
         -1.83  -1.83  -0.46  -0.46  -0.46  -0.03  -0.03  -0.03  -0.03  -0.03
         -0.03   1.98   2.34   2.34   4.59   4.59   4.59   4.91   5.32   5.32
          5.32   6.95   6.95   6.95   7.00   7.00   7.00   8.03   9.32   9.32
          9.32  10.22  10.22  12.29  12.29  12.29  13.31  13.31  13.31  14.05
         14.05  14.05  14.42  14.42  16.03  16.41  16.41  16.41  16.96  16.97
         16.97  18.34  18.35  18.35  20.21  20.21  20.21  20.69  20.69  23.79
         23.79  23.79  24.67  29.02  29.02  29.02  30.38  30.38  33.30  33.30
         33.30  35.50  55.46  55.46  55.47  58.61  58.61  58.61  72.04  72.04
         74.19  80.43  80.43  80.43
  13  1 -16.17 -14.51 -14.51 -14.51 -11.71 -11.71 -11.71  -9.53  -8.70  -8.70
         -8.70  -7.47  -7.47  -7.47  -6.20  -6.20  -3.67  -3.67  -3.67  -3.57
         -1.85  -1.85  -0.50  -0.50  -0.50  -0.06  -0.06  -0.06   0.29   0.29
          0.29   1.65   2.17   2.17   4.69   4.69   4.69   5.00   5.33   5.33
          5.33   7.02   7.02   7.02   7.09   7.09   7.09   7.69   9.60   9.60
          9.60  10.22  10.22  12.66  12.66  12.66  13.05  13.05  13.05  13.64
         13.64  13.64  14.52  14.52  16.19  16.41  16.41  16.41  16.59  16.59
         16.59  18.44  18.44  18.44  20.45  20.46  20.46  20.74  20.74  23.15
         23.15  23.15  25.08  27.75  27.75  27.75  30.64  30.64  33.47  33.47
         33.48  34.81  55.62  55.62  55.62  56.32  56.32  56.33  70.84  72.51
         72.51  79.79  79.80  79.80
  14  1 -16.29 -14.44 -14.44 -14.44 -11.69 -11.69 -11.69  -9.17  -8.82  -8.82
         -8.82  -7.57  -7.57  -7.57  -6.13  -6.13  -3.79  -3.79  -3.79  -3.49
         -1.89  -1.89  -0.96  -0.96  -0.96   0.36   0.36   0.36   0.63   0.63
          0.63   1.31   2.05   2.05   4.79   4.79   4.79   5.09   5.35   5.35
          5.35   7.07   7.07   7.07   7.17   7.17   7.17   7.33   9.94   9.94
          9.94  10.07  10.07  12.33  12.33  12.33  13.22  13.22  13.22  13.44
         13.44  13.44  14.80  14.80  16.23  16.24  16.24  16.37  16.45  16.45
         16.45  18.50  18.50  18.50  20.71  20.71  20.71  20.77  20.77  22.53
         22.53  22.53  25.12  26.68  26.68  26.68  30.93  30.93  33.44  33.44
         33.44  34.75  52.30  52.30  52.30  57.36  57.36  57.36  67.78  73.66
         73.66  78.88  78.88  78.88
  15  1 -16.41 -14.37 -14.37 -14.37 -11.70 -11.70 -11.70  -8.90  -8.90  -8.90
         -8.81  -7.66  -7.66  -7.66  -6.06  -6.06  -3.90  -3.90  -3.90  -3.41
         -1.95  -1.95  -1.40  -1.40  -1.40   0.78   0.78   0.78   0.97   0.98
          0.98   0.98   1.97   1.97   4.88   4.88   4.88   5.17   5.38   5.38
          5.38   6.99   7.10   7.10   7.10   7.24   7.24   7.24   9.79   9.79
         10.32  10.32  10.32  11.88  11.88  11.88  12.78  12.78  12.78  13.92
         13.92  13.92  15.22  15.22  15.91  15.91  15.91  16.51  16.52  16.52
         16.57  18.54  18.54  18.54  20.79  20.79  20.96  20.96  20.96  21.94
         21.94  21.94  24.75  25.78  25.78  25.78  31.26  31.26  33.19  33.19
         33.19  35.20  48.92  48.92  48.92  58.50  58.50  58.50  65.22  75.63
         75.63  77.76  77.76  77.76
  16  1 -16.51 -14.28 -14.28 -14.28 -11.74 -11.74 -11.74  -8.93  -8.93  -8.93
         -8.44  -7.74  -7.74  -7.74  -5.98  -5.98  -4.01  -4.01  -4.01  -3.32
         -2.02  -2.02  -1.83  -1.83  -1.83   0.62   1.20   1.20   1.20   1.34
          1.34   1.34   1.94   1.94   4.97   4.97   4.97   5.20   5.41   5.41
          5.41   6.70   7.12   7.12   7.12   7.29   7.29   7.29   9.45   9.45
         10.70  10.70  10.70  11.47  11.47  11.47  12.32  12.32  12.32  14.38
         14.38  14.38  15.64  15.64  15.64  15.71  15.71  16.61  16.61  16.61
         16.79  18.54  18.54  18.54  20.79  20.79  21.18  21.18  21.18  21.37
         21.37  21.37  24.05  25.03  25.03  25.03  31.63  31.63  32.76  32.76
         32.76  35.89  45.77  45.77  45.77  59.70  59.70  59.70  63.42  76.53
         76.53  76.53  78.58  78.58
  17  1 -16.61 -14.20 -14.20 -14.19 -11.81 -11.81 -11.81  -8.91  -8.91  -8.91
         -8.07  -7.82  -7.82  -7.82  -5.90  -5.90  -4.11  -4.11  -4.11  -3.23
         -2.24  -2.24  -2.24  -2.11  -2.11   0.26   1.63   1.63   1.63   1.71
          1.71   1.71   1.94   1.94   5.05   5.05   5.05   5.16   5.46   5.46
          5.46   6.50   7.13   7.13   7.13   7.33   7.33   7.33   9.08   9.08
         10.75  10.75  10.75  11.42  11.42  11.42  11.83  11.83  11.83  14.80
         14.80  14.80  15.42  15.42  15.42  16.23  16.23  16.71  16.71  16.71
         17.02  18.53  18.53  18.53  20.77  20.77  20.84  20.84  20.84  21.36
         21.36  21.36  23.16  24.39  24.39  24.39  32.01  32.01  32.21  32.21
         32.22  36.46  43.02  43.02  43.02  60.92  60.92  60.92  62.70  75.24
         75.24  75.24  82.68  82.68
  18  1 -16.70 -14.10 -14.10 -14.10 -11.91 -11.91 -11.91  -8.86  -8.86  -8.86
         -7.89  -7.89  -7.89  -7.69  -5.82  -5.82  -4.20  -4.20  -4.20  -3.14
         -2.63  -2.63  -2.63  -2.21  -2.21  -0.10   1.97   1.97   2.05   2.05
          2.05   2.08   2.09   2.09   5.02   5.13   5.13   5.13   5.51   5.51
          5.51   6.42   7.12   7.12   7.12   7.35   7.35   7.35   8.69   8.69
         10.35  10.35  10.35  11.32  11.33  11.33  11.85  11.85  11.85  15.18
         15.18  15.18  15.27  15.27  15.27  16.76  16.76  16.82  16.82  16.82
         17.26  18.50  18.50  18.50  20.34  20.34  20.34  20.74  20.74  21.46
         21.46  21.46  22.20  23.86  23.86  23.86  31.65  31.65  31.65  32.41
         32.41  36.61  40.74  40.74  40.74  62.12  62.12  62.12  63.27  73.96
         73.96  73.96  88.11  88.11
  19  1 -16.77 -14.00 -14.00 -14.00 -12.03 -12.03 -12.03  -8.78  -8.78  -8.78
         -7.96  -7.96  -7.96  -7.31  -5.74  -5.74  -4.29  -4.29  -4.29  -3.06
         -3.00  -2.99  -2.99  -2.31  -2.31  -0.47   2.04   2.04   2.46   2.46
          2.46   2.47   2.47   2.47   4.83   5.22   5.22   5.22   5.56   5.56
          5.56   6.42   7.12   7.12   7.12   7.37   7.37   7.37   8.32   8.32
          9.90   9.90   9.90  10.80  10.80  10.80  12.35  12.35  12.35  15.17
         15.17  15.17  15.51  15.51  15.51  16.92  16.92  16.92  17.27  17.27
         17.48  18.48  18.48  18.48  19.87  19.88  19.88  20.70  20.70  21.26
         21.46  21.46  21.46  23.40  23.40  23.40  31.18  31.18  31.18  32.80
         32.80  36.29  38.91  38.91  38.91  63.27  63.27  63.27  65.22  72.73
         72.73  72.73  94.99  94.99
  20  1 -16.84 -13.88 -13.88 -13.88 -12.16 -12.16 -12.16  -8.68  -8.68  -8.68
         -8.01  -8.01  -8.01  -6.93  -5.66  -5.66  -4.36  -4.36  -4.36  -3.33
         -3.33  -3.33  -2.97  -2.42  -2.42  -0.83   2.12   2.12   2.84   2.84
          2.84   2.87   2.87   2.87   4.65   5.30   5.30   5.30   5.63   5.63
          5.63   6.47   7.11   7.11   7.11   7.37   7.37   7.37   7.96   7.96
          9.44   9.44   9.44  10.27  10.27  10.27  12.86  12.86  12.86  15.13
         15.13  15.13  15.77  15.77  15.77  17.01  17.01  17.01  17.63  17.75
         17.75  18.45  18.45  18.45  19.44  19.44  19.44  20.46  20.64  20.64
         21.37  21.37  21.37  23.00  23.00  23.00  30.88  30.88  30.88  33.17
         33.17  35.62  37.46  37.46  37.46  64.34  64.34  64.34  68.52  71.56
         71.56  71.56 103.33 103.33
  21  1 -16.89 -13.77 -13.77 -13.77 -12.31 -12.31 -12.31  -8.56  -8.56  -8.56
         -8.06  -8.06  -8.06  -6.56  -5.59  -5.59  -4.42  -4.42  -4.42  -3.64
         -3.64  -3.64  -2.90  -2.53  -2.53  -1.19   2.22   2.22   3.20   3.20
          3.20   3.25   3.25   3.25   4.51   5.40   5.40   5.40   5.70   5.70
          5.70   6.53   7.09   7.09   7.09   7.37   7.37   7.37   7.64   7.64
          8.99   8.99   8.99   9.75   9.75   9.75  13.38  13.38  13.38  15.13
         15.13  15.13  15.97  15.97  15.97  17.07  17.07  17.07  17.61  18.19
         18.19  18.41  18.41  18.41  19.05  19.05  19.05  19.90  20.55  20.55
         21.22  21.22  21.22  22.65  22.65  22.65  30.81  30.81  30.81  33.49
         33.49  34.86  36.29  36.29  36.29  65.31  65.32  65.32  70.48  70.48
         70.48  73.22 112.95 112.95
  22  1 -16.94 -13.64 -13.64 -13.64 -12.46 -12.46 -12.46  -8.44  -8.44  -8.44
         -8.10  -8.10  -8.10  -6.20  -5.52  -5.52  -4.47  -4.47  -4.47  -3.91
         -3.91  -3.91  -2.84  -2.62  -2.62  -1.53   2.32   2.32   3.54   3.54
          3.54   3.60   3.60   3.60   4.48   5.52   5.52   5.52   5.78   5.78
          5.78   6.59   7.08   7.08   7.08   7.35   7.35   7.37   7.37   7.37
          8.55   8.55   8.55   9.24   9.24   9.24  13.89  13.89  13.89  15.16
         15.16  15.16  16.10  16.10  16.10  17.09  17.09  17.09  17.36  18.33
         18.33  18.33  18.59  18.59  18.71  18.71  18.71  19.68  20.45  20.45
         21.08  21.08  21.08  22.34  22.34  22.34  30.95  30.95  30.95  33.77
         33.77  34.22  35.34  35.34  35.34  66.16  66.16  66.16  69.52  69.52
         69.52  79.85 123.34 123.34
  23  1 -16.97 -13.51 -13.51 -13.51 -12.62 -12.62 -12.62  -8.33  -8.33  -8.33
         -8.13  -8.13  -8.13  -5.88  -5.46  -5.46  -4.50  -4.50  -4.50  -4.14
         -4.14  -4.14  -2.80  -2.71  -2.71  -1.83   2.42   2.42   3.84   3.84
          3.84   3.89   3.89   3.89   4.57   5.67   5.67   5.67   5.88   5.88
          5.88   6.64   7.08   7.08   7.08   7.11   7.11   7.38   7.38   7.38
          8.12   8.12   8.13   8.77   8.77   8.77  14.38  14.38  14.38  15.22
         15.22  15.22  16.19  16.19  16.19  16.99  17.04  17.04  17.04  18.21
         18.21  18.21  18.42  18.42  18.42  18.94  18.94  19.69  20.33  20.33
         21.02  21.02  21.02  22.06  22.06  22.06  31.25  31.25  31.25  33.87
         33.98  33.98  34.54  34.54  34.54  66.85  66.85  66.85  68.71  68.71
         68.71  89.92 133.59 133.59
  24  1 -16.99 -13.37 -13.37 -13.37 -12.77 -12.77 -12.77  -8.24  -8.24  -8.24
         -8.15  -8.15  -8.15  -5.60  -5.42  -5.42  -4.52  -4.52  -4.52  -4.32
         -4.32  -4.32  -2.80  -2.77  -2.77  -2.06   2.50   2.50   4.08   4.08
          4.08   4.11   4.11   4.11   4.82   5.84   5.84   5.84   5.97   5.97
          5.97   6.69   6.92   6.92   7.08   7.08   7.08   7.42   7.42   7.42
          7.74   7.74   7.74   8.33   8.34   8.34  14.83  14.83  14.83  15.27
         15.27  15.27  16.25  16.25  16.25  16.64  16.91  16.91  16.91  18.08
         18.08  18.08  18.19  18.19  18.19  19.25  19.25  19.78  20.19  20.19
         21.05  21.05  21.05  21.80  21.80  21.80  31.66  31.66  31.66  33.85
         33.85  33.85  33.90  34.14  34.14  67.36  67.36  67.36  68.09  68.09
         68.10 106.65 142.44 142.44
  25  1 -17.00 -13.23 -13.23 -13.23 -12.93 -12.93 -12.93  -8.18  -8.18  -8.18
         -8.17  -8.17  -8.17  -5.41  -5.39  -5.39  -4.53  -4.53  -4.53  -4.44
         -4.44  -4.44  -2.82  -2.81  -2.81  -2.20   2.55   2.55   4.23   4.23
          4.23   4.24   4.24   4.24   5.14   6.01   6.01   6.01   6.05   6.05
          6.05   6.72   6.81   6.81   7.11   7.11   7.11   7.42   7.42   7.42
          7.52   7.52   7.52   7.97   7.97   7.97  15.19  15.19  15.19  15.32
         15.32  15.32  16.32  16.32  16.32  16.42  16.70  16.70  16.70  17.98
         17.98  17.98  18.05  18.05  18.05  19.52  19.52  19.87  20.02  20.02
         21.17  21.17  21.17  21.56  21.56  21.56  32.14  32.14  32.14  33.23
         33.23  33.23  34.18  34.24  34.24  67.66  67.66  67.68  67.71  67.73
         67.73 132.43 148.51 148.51
  26  1 -17.01 -13.09 -13.09 -13.09 -13.07 -13.07 -13.07  -8.17  -8.17  -8.17
         -8.16  -8.16  -8.16  -5.38  -5.38  -5.34  -4.51  -4.51  -4.51  -4.50
         -4.50  -4.49  -2.84  -2.82  -2.82  -2.25   2.57   2.57   4.28   4.28
          4.28   4.29   4.29   4.29   5.30   6.08   6.08   6.08   6.09   6.09
          6.09   6.73   6.77   6.77   7.19   7.19   7.19   7.21   7.21   7.22
          7.68   7.68   7.68   7.71   7.71   7.71  15.33  15.33  15.33  15.34
         15.34  15.34  16.34  16.46  16.46  16.46  16.48  16.48  16.48  17.95
         17.95  17.95  18.00  18.00  18.00  19.67  19.67  19.90  19.90  19.90
         21.35  21.35  21.35  21.35  21.35  21.35  32.66  32.66  32.66  32.68
         32.68  32.68  34.27  34.27  34.36  67.57  67.57  67.57  67.78  67.79
         67.79 149.81 150.67 150.67
  27  1 -17.00 -13.33 -13.09 -13.09 -13.07 -13.07 -12.83  -8.18  -8.18  -8.17
         -8.17  -8.17  -8.15  -5.41  -5.40  -5.37  -4.56  -4.49  -4.49  -4.47
         -4.47  -4.43  -2.84  -2.80  -2.79  -2.21   2.53   2.58   4.22   4.22
          4.25   4.25   4.25   4.25   5.15   5.97   5.97   5.99   5.99   6.15
          6.15   6.75   6.77   6.81   6.95   7.27   7.27   7.29   7.29   7.34
          7.43   7.75   7.75   7.78   7.78   8.07  15.23  15.24  15.26  15.26
         15.27  15.27  16.14  16.41  16.53  16.53  16.56  16.56  16.76  17.95
         17.95  17.99  17.99  18.07  18.11  19.47  19.64  19.86  19.86  20.13
         21.07  21.35  21.35  21.35  21.35  21.71  31.83  32.66  32.66  32.68
         32.68  33.61  34.02  34.08  34.58  67.51  67.62  67.62  67.73  67.84
         67.84 138.39 145.15 145.65
  28  1 -16.99 -13.57 -13.08 -13.08 -13.07 -13.07 -12.57  -8.22  -8.22  -8.21
         -8.21  -8.15  -8.14  -5.52  -5.47  -5.44  -4.61  -4.41  -4.41  -4.39
         -4.39  -4.35  -2.87  -2.72  -2.71  -2.10   2.42   2.59   4.05   4.05
          4.13   4.13   4.14   4.14   4.83   5.76   5.76   5.78   5.78   6.33
          6.33   6.67   6.76   6.78   6.95   6.99   7.37   7.37   7.38   7.39
          7.64   8.00   8.00   8.03   8.03   8.46  14.97  14.97  15.08  15.08
         15.10  15.10  15.80  16.63  16.72  16.73  16.75  16.75  16.98  17.93
         17.93  17.97  17.97  18.37  18.41  19.20  19.54  19.72  19.72  20.46
         20.91  21.36  21.36  21.37  21.37  22.13  31.09  32.66  32.66  32.71
         32.71  33.32  33.38  34.68  35.46  67.32  67.53  67.78  67.79  67.99
         67.99 116.39 133.13 133.55
  29  1 -16.98 -13.81 -13.08 -13.08 -13.06 -13.06 -12.30  -8.29  -8.29  -8.28
         -8.28  -8.13  -8.12  -5.69  -5.56  -5.54  -4.64  -4.28  -4.28  -4.27
         -4.27  -4.25  -2.93  -2.60  -2.59  -1.95   2.25   2.62   3.81   3.82
          3.94   3.94   3.95   3.95   4.53   5.56   5.56   5.58   5.58   6.37
[...]
         76.00  86.64  93.64  95.41
  93  1 -16.04 -15.39 -14.27 -13.94 -12.11 -11.74 -10.35  -9.46  -9.33  -9.16
         -8.16  -7.93  -7.75  -7.50  -7.25  -6.37  -3.21  -3.18  -2.77  -2.11
         -2.01  -1.60  -1.58  -0.84  -0.83  -0.63  -0.37  -0.28   0.61   0.68
          1.26   2.04   2.07   2.08   2.70   3.54   4.02   4.03   4.65   5.66
          5.80   5.82   7.68   7.82   8.33   8.44   9.02   9.39   9.48  10.22
         10.57  10.99  11.09  11.32  11.44  11.76  12.08  12.39  13.02  13.31
         14.02  14.18  14.46  14.47  14.66  15.47  15.80  16.13  16.38  17.00
         17.61  17.74  18.55  18.77  19.40  20.58  21.68  22.21  22.61  23.05
         23.24  23.56  24.51  24.90  26.06  26.26  31.45  35.81  37.29  39.33
         41.21  49.80  51.63  53.53  54.90  64.02  64.22  64.49  66.65  70.86
         75.83  86.62  93.59  95.42
  94  1 -15.84 -15.22 -14.34 -14.34 -12.01 -12.01 -10.99 -10.17  -8.75  -8.75
         -7.76  -7.48  -7.48  -7.19  -6.69  -6.67  -3.32  -3.20  -2.97  -2.97
         -2.08  -1.42  -1.42  -1.29  -1.22  -0.46  -0.23   0.48   0.48   0.69
          0.94   0.94   2.89   2.89   3.28   3.41   4.97   5.11   5.14   5.46
          5.48   5.48   6.48   6.48   7.28   8.29   8.92   9.13   9.13   9.20
          9.47   9.47  11.09  11.40  11.40  11.82  13.13  13.34  13.49  13.49
         13.52  14.55  14.98  14.98  16.05  16.05  16.31  16.38  17.19  17.33
         17.33  17.90  17.90  19.07  19.20  19.20  20.69  21.82  21.93  23.60
         24.39  24.39  25.05  26.87  27.49  27.49  31.71  32.60  35.08  35.08
         40.91  48.90  54.27  54.27  57.41  59.50  63.47  65.36  65.36  67.67
         83.97  87.55  87.55  93.85
  95  1 -15.46 -14.92 -14.92 -14.58 -12.02 -11.63 -11.63 -10.99  -8.30  -7.90
         -7.90  -7.22  -6.97  -6.92  -6.92  -6.39  -3.33  -3.19  -2.87  -2.86
         -2.09  -2.08  -1.77  -1.72  -1.31  -0.93  -0.81  -0.81   1.45   1.45
          2.19   2.42   2.60   3.21   3.58   4.03   4.03   4.41   4.41   4.77
          5.22   7.02   7.02   7.15   7.15   7.81   8.09   8.61   8.92   8.92
          8.95   9.30   9.35  10.08  10.53  10.53  13.82  14.06  14.06  15.05
         15.05  15.11  15.45  15.62  15.76  15.96  16.36  16.36  17.56  18.34
         18.34  18.34  18.89  18.89  19.34  19.61  20.40  20.40  21.05  21.48
         26.76  26.88  26.88  28.19  28.56  32.07  32.07  34.12  38.53  39.44
         39.44  45.80  54.63  54.63  57.90  58.85  60.68  73.13  73.13  78.41
         83.97  83.97  84.69 102.34
  96  1 -15.45 -14.93 -14.92 -14.58 -12.02 -11.63 -11.61 -11.01  -8.32  -7.91
         -7.90  -7.21  -6.95  -6.93  -6.92  -6.37  -3.32  -3.18  -2.88  -2.86
         -2.09  -2.08  -1.77  -1.70  -1.31  -0.94  -0.83  -0.82   1.42   1.44
          2.18   2.41   2.58   3.23   3.59   4.04   4.05   4.41   4.43   4.76
          5.20   7.03   7.04   7.16   7.17   7.80   8.10   8.62   8.89   8.91
          8.95   9.31   9.33  10.07  10.50  10.53  13.82  14.06  14.08  15.04
         15.06  15.09  15.44  15.56  15.74  15.97  16.41  16.41  17.56  18.29
         18.30  18.37  18.89  18.89  19.30  19.64  20.43  20.43  21.05  21.49
         26.76  26.83  26.89  28.26  28.54  32.07  32.10  34.07  38.63  39.39
         39.47  45.80  54.50  54.62  57.98  58.83  60.79  73.20  73.22  78.38
         83.99  84.06  84.66 103.38
  97  1 -15.45 -14.92 -14.92 -14.59 -11.99 -11.63 -11.63 -11.01  -8.32  -7.91
         -7.91  -7.20  -6.96  -6.90  -6.90  -6.39  -3.32  -3.19  -2.87  -2.87
         -2.06  -2.06  -1.75  -1.72  -1.32  -0.95  -0.84  -0.84   1.43   1.43
          2.18   2.40   2.59   3.24   3.60   4.05   4.05   4.41   4.41   4.78
          5.21   7.04   7.04   7.15   7.15   7.80   8.11   8.64   8.92   8.92
          8.92   9.29   9.36  10.06  10.50  10.50  13.80  14.06  14.06  15.01
         15.02  15.09  15.44  15.62  15.75  15.97  16.40  16.40  17.57  18.32
         18.32  18.38  18.89  18.89  19.32  19.59  20.41  20.41  21.07  21.47
         26.74  26.88  26.88  28.29  28.47  32.04  32.04  34.16  38.56  39.50
         39.50  45.77  54.73  54.73  58.08  58.73  60.71  73.16  73.16  78.49
         84.05  84.06  84.71 103.14
  98  1 -15.62 -15.02 -15.02 -14.52 -11.60 -11.01 -11.01 -10.21  -9.27  -8.79
         -8.79  -8.20  -7.08  -7.00  -7.00  -6.32  -3.31  -2.69  -2.42  -2.42
         -1.73  -1.73  -1.39  -1.17  -0.12  -0.12  -0.10   0.07   0.43   0.43
          0.69   1.23   1.73   2.16   2.47   2.74   2.74   4.23   4.23   5.36
          5.75   7.61   7.61   8.16   8.73   8.73   9.33   9.64   9.87  10.00
         10.00  10.69  11.08  11.69  11.69  12.00  12.69  12.83  12.83  12.85
         13.43  13.71  13.71  14.41  14.87  15.09  15.09  15.51  17.36  18.13
         18.13  19.17  19.71  19.90  19.90  20.37  21.45  21.45  21.71  22.25
         25.49  25.50  25.93  25.93  27.55  35.85  35.85  40.14  42.46  42.46
         48.48  51.84  51.84  53.29  57.66  59.53  60.32  68.74  68.74  78.37
         79.01  80.88  80.88  96.91
  99  1 -15.62 -15.02 -15.02 -14.51 -11.61 -11.01 -11.01 -10.20  -9.26  -8.78
         -8.78  -8.21  -7.08  -7.00  -7.00  -6.32  -3.31  -2.70  -2.42  -2.42
         -1.75  -1.75  -1.40  -1.18  -0.11  -0.11  -0.08   0.08   0.45   0.45
          0.70   1.24   1.71   2.14   2.47   2.72   2.72   4.23   4.23   5.36
          5.75   7.61   7.61   8.14   8.72   8.72   9.34   9.66   9.88   9.99
          9.99  10.66  11.05  11.71  11.71  12.01  12.71  12.84  12.84  12.87
         13.46  13.75  13.75  14.39  14.87  15.05  15.05  15.50  17.35  18.14
         18.14  19.15  19.72  19.90  19.90  20.38  21.44  21.44  21.70  22.25
         25.51  25.53  25.92  25.92  27.50  35.85  35.86  40.13  42.45  42.45
         48.44  51.90  51.90  53.23  57.61  59.36  60.51  68.55  68.55  78.37
         78.96  80.85  80.85  97.07
 100  1 -15.46 -14.92 -14.92 -14.58 -12.02 -11.63 -11.63 -10.99  -8.30  -7.90
         -7.90  -7.22  -6.97  -6.92  -6.92  -6.39  -3.33  -3.19  -2.87  -2.86
         -2.09  -2.08  -1.77  -1.72  -1.31  -0.93  -0.81  -0.81   1.45   1.45
          2.19   2.42   2.60   3.21   3.58   4.03   4.03   4.41   4.41   4.77
          5.22   7.02   7.02   7.15   7.15   7.81   8.09   8.61   8.92   8.92
          8.95   9.30   9.35  10.08  10.53  10.53  13.82  14.06  14.06  15.05
         15.05  15.11  15.45  15.62  15.76  15.96  16.36  16.36  17.56  18.34
         18.34  18.34  18.89  18.89  19.34  19.61  20.40  20.40  21.05  21.48
         26.76  26.88  26.88  28.19  28.56  32.07  32.07  34.12  38.53  39.44
         39.44  45.80  54.63  54.63  57.90  58.85  60.68  73.13  73.13  78.41
         83.97  83.97  84.69 102.34
 101  1 -15.15 -14.80 -14.80 -14.80 -12.10 -12.10 -12.10 -11.69  -7.14  -7.14
         -7.14  -6.76  -6.76  -6.76  -6.54  -6.54  -3.96  -3.46  -3.46  -3.46
         -2.02  -2.02  -2.02  -1.90  -1.90  -1.59  -1.59  -1.59   2.94   2.94
          2.94   3.36   4.15   4.15   4.27   4.27   4.27   5.27   5.44   5.44
          5.44   6.22   6.22   6.22   6.29   6.29   6.29   7.73   7.73   8.01
          8.01   8.01   8.71   8.71   8.71   8.79  15.85  15.91  15.91  15.91
         16.40  16.40  16.60  16.60  16.60  17.19  17.19  17.19  17.98  17.98
         17.98  18.95  18.95  18.95  19.33  19.34  19.34  19.90  19.90  21.04
         27.86  27.86  27.86  29.15  29.15  29.52  29.52  29.52  48.62  48.62
         48.62  53.95  61.99  61.99  62.00  67.30  67.30  67.30  76.16  76.16
         92.92  92.92  92.93  97.74
 102  1 -15.15 -14.81 -14.80 -14.80 -12.10 -12.10 -12.07 -11.71  -7.17  -7.16
         -7.16  -6.76  -6.74  -6.74  -6.55  -6.52  -3.94  -3.48  -3.46  -3.46
         -2.02  -2.00  -2.00  -1.90  -1.88  -1.61  -1.61  -1.61   2.92   2.92
          2.93   3.38   4.13   4.15   4.28   4.29   4.29   5.25   5.45   5.45
          5.46   6.22   6.22   6.24   6.31   6.31   6.32   7.71   7.73   8.00
          8.00   8.01   8.68   8.69   8.70   8.81  15.84  15.91  15.91  15.91
         16.36  16.39  16.58  16.58  16.61  17.22  17.22  17.22  17.97  17.97
         17.98  18.91  18.92  18.92  19.37  19.37  19.38  19.89  19.93  21.04
         27.83  27.84  27.84  29.14  29.20  29.52  29.54  29.54  48.48  48.74
         48.74  53.96  61.86  62.14  62.15  67.19  67.21  67.24  76.76  77.03
         92.73  92.86  92.87  97.88
 103  1 -15.45 -14.93 -14.92 -14.58 -12.02 -11.63 -11.61 -11.01  -8.32  -7.91
         -7.90  -7.21  -6.95  -6.93  -6.92  -6.37  -3.32  -3.18  -2.88  -2.86
         -2.09  -2.08  -1.77  -1.70  -1.31  -0.94  -0.83  -0.82   1.42   1.44
          2.18   2.41   2.58   3.23   3.59   4.04   4.05   4.41   4.43   4.76
          5.20   7.03   7.04   7.16   7.17   7.80   8.10   8.62   8.89   8.91
          8.95   9.31   9.33  10.07  10.50  10.53  13.82  14.06  14.08  15.04
         15.06  15.09  15.44  15.56  15.74  15.97  16.41  16.41  17.56  18.29
         18.30  18.37  18.89  18.89  19.30  19.64  20.43  20.43  21.05  21.49
         26.76  26.83  26.89  28.26  28.54  32.07  32.10  34.07  38.63  39.39
         39.47  45.80  54.50  54.62  57.98  58.83  60.79  73.20  73.22  78.38
         83.99  84.06  84.66 103.38
 104  1 -15.62 -15.02 -15.02 -14.51 -11.62 -11.00 -10.99 -10.22  -9.26  -8.79
         -8.78  -8.20  -7.07  -7.02  -7.01  -6.30  -3.29  -2.68  -2.44  -2.43
         -1.74  -1.73  -1.40  -1.16  -0.11  -0.10  -0.10   0.08   0.43   0.44
          0.70   1.24   1.72   2.15   2.46   2.72   2.73   4.24   4.24   5.34
          5.73   7.63   7.63   8.18   8.70   8.71   9.33   9.67   9.89   9.98
         10.00  10.66  11.07  11.69  11.71  12.00  12.68  12.84  12.85  12.85
         13.44  13.74  13.75  14.34  14.85  15.10  15.11  15.50  17.34  18.09
         18.10  19.18  19.77  19.89  19.89  20.35  21.46  21.47  21.70  22.27
         25.51  25.55  25.88  25.92  27.54  35.81  35.86  40.23  42.43  42.45
         48.52  51.71  51.82  53.12  57.72  59.28  60.38  68.74  68.78  78.35
         78.93  80.99  81.02  96.98
 105  1 -15.62 -15.02 -15.02 -14.51 -11.62 -11.00 -10.99 -10.22  -9.26  -8.79
         -8.78  -8.20  -7.07  -7.02  -7.01  -6.30  -3.29  -2.68  -2.44  -2.43
         -1.74  -1.73  -1.40  -1.16  -0.11  -0.10  -0.10   0.08   0.43   0.44
          0.70   1.24   1.72   2.15   2.46   2.72   2.73   4.24   4.24   5.34
          5.73   7.63   7.63   8.18   8.70   8.71   9.33   9.67   9.89   9.98
         10.00  10.66  11.07  11.69  11.71  12.00  12.68  12.84  12.85  12.85
         13.44  13.74  13.75  14.34  14.85  15.10  15.11  15.50  17.34  18.09
         18.10  19.18  19.77  19.89  19.89  20.35  21.46  21.47  21.70  22.27
         25.51  25.55  25.88  25.92  27.54  35.81  35.86  40.23  42.43  42.45
         48.52  51.71  51.82  53.12  57.72  59.28  60.38  68.74  68.78  78.35
         78.93  80.99  81.02  96.98
 106  1 -15.45 -14.93 -14.92 -14.58 -12.02 -11.63 -11.61 -11.01  -8.32  -7.91
         -7.90  -7.21  -6.95  -6.93  -6.92  -6.37  -3.32  -3.18  -2.88  -2.86
         -2.09  -2.08  -1.77  -1.70  -1.31  -0.94  -0.83  -0.82   1.42   1.44
          2.18   2.41   2.58   3.23   3.59   4.04   4.05   4.41   4.43   4.76
          5.20   7.03   7.04   7.16   7.17   7.80   8.10   8.62   8.89   8.91
          8.95   9.31   9.33  10.07  10.50  10.53  13.82  14.06  14.08  15.04
         15.06  15.09  15.44  15.56  15.74  15.97  16.41  16.41  17.56  18.29
         18.30  18.37  18.89  18.89  19.30  19.64  20.43  20.43  21.05  21.49
         26.76  26.83  26.89  28.26  28.54  32.07  32.10  34.07  38.63  39.39
         39.47  45.80  54.50  54.62  57.98  58.83  60.79  73.20  73.22  78.38
         83.99  84.06  84.66 103.38
 107  1 -15.15 -14.81 -14.80 -14.80 -12.10 -12.10 -12.07 -11.71  -7.17  -7.16
         -7.16  -6.76  -6.74  -6.74  -6.55  -6.52  -3.94  -3.48  -3.46  -3.46
         -2.02  -2.00  -2.00  -1.90  -1.88  -1.61  -1.61  -1.61   2.92   2.92
          2.93   3.38   4.13   4.15   4.28   4.29   4.29   5.25   5.45   5.45
          5.46   6.22   6.22   6.24   6.31   6.31   6.32   7.71   7.73   8.00
          8.00   8.01   8.68   8.69   8.70   8.81  15.84  15.91  15.91  15.91
         16.36  16.39  16.58  16.58  16.61  17.22  17.22  17.22  17.97  17.97
         17.98  18.91  18.92  18.92  19.37  19.37  19.38  19.89  19.93  21.04
         27.83  27.84  27.84  29.14  29.20  29.52  29.54  29.54  48.48  48.74
         48.74  53.96  61.86  62.14  62.15  67.19  67.21  67.24  76.76  77.03
         92.73  92.86  92.87  97.88
 108  1 -15.15 -14.81 -14.80 -14.80 -12.10 -12.10 -12.07 -11.71  -7.17  -7.16
         -7.16  -6.76  -6.74  -6.74  -6.55  -6.52  -3.94  -3.48  -3.46  -3.46
         -2.02  -2.00  -2.00  -1.90  -1.88  -1.61  -1.61  -1.61   2.92   2.92
          2.93   3.38   4.13   4.15   4.28   4.29   4.29   5.25   5.45   5.45
          5.46   6.22   6.22   6.24   6.31   6.31   6.32   7.71   7.73   8.00
          8.00   8.01   8.68   8.69   8.70   8.81  15.84  15.91  15.91  15.91
         16.36  16.39  16.58  16.58  16.61  17.22  17.22  17.22  17.97  17.97
         17.98  18.91  18.92  18.92  19.37  19.37  19.38  19.89  19.93  21.04
         27.83  27.84  27.84  29.14  29.20  29.52  29.54  29.54  48.48  48.74
         48.74  53.96  61.86  62.14  62.15  67.19  67.21  67.24  76.76  77.03
         92.73  92.86  92.87  97.88
siesta: Fermi energy =      -4.984087 eV

siesta: Program's energy decomposition (eV):
siesta: Ebs     =      -331.239746
siesta: Eions   =      1510.441798
siesta: Ena     =       471.511733
siesta: Ekin    =       318.889742
siesta: Enl     =       127.020636
siesta: DEna    =         6.700793
siesta: DUscf   =         1.515731
siesta: DUext   =         0.000000
siesta: Exc     =      -445.869241
siesta: eta*DQ  =         0.000000
siesta: Emadel  =         0.000000
siesta: Emeta   =         0.000000
siesta: Emolmec =         0.000000
siesta: Ekinion =         0.000000
siesta: Eharris =     -1030.673941
siesta: Etot    =     -1030.672404
siesta: FreeEng =     -1030.672404

siesta: Final energy (eV):
siesta:  Band Struct. =    -331.239746
siesta:       Kinetic =     318.889742
siesta:       Hartree =      60.082478
siesta:    Ext. field =       0.000000
siesta:   Exch.-corr. =    -445.869241
siesta:  Ion-electron =    -421.684405
siesta:       Ion-ion =    -542.090977
siesta:       Ekinion =       0.000000
siesta:         Total =   -1030.672404

siesta: Stress tensor (static) (eV/Ang**3):
siesta:     0.001791    0.000520    0.000520
siesta:     0.000520    0.001791    0.000520
siesta:     0.000520    0.000520    0.001791

siesta: Constrained stress tensor (static) (eV/Ang**3):
siesta:     0.001791    0.000520    0.000520
siesta:     0.000520    0.001791    0.000520
siesta:     0.000520    0.000520    0.001791

siesta: Cell volume =        168.669762 Ang**3

siesta: Pressure (static):
siesta:                Solid            Molecule  Units
siesta:          -0.00001951         -0.00001452  Ry/Bohr**3
siesta:          -0.00179117         -0.00133353  eV/Ang**3
siesta:          -2.86980683         -2.13656801  kBar
(Free)E+ p_basis*V_orbitals  =       -1021.734673
(Free)Eharris+ p_basis*V_orbitals  =       -1021.736403

* Maximum dynamic memory allocated : Node    0 =    84 MB

* Maximum memory occured during init_pulay_arrrays            

timer: CPU execution times:
timer:  Routine       Calls   Time/call    Tot.time        %
timer:  siesta            1     644.820     644.820   100.00
timer:  Setup             1       0.180       0.180     0.03
timer:  bands             3       0.507       1.520     0.24
timer:  writewave         3       0.007       0.020     0.00
timer:  KSV_init          1       0.000       0.000     0.00
timer:  IterMD            8      80.377     643.012    99.72
timer:  hsparse           8       0.157       1.252     0.19
timer:  overlap           8       0.140       1.116     0.17
timer:  IterSCF          37      14.120     522.457    81.02
timer:  kinefsm          16       0.129       2.064     0.32
timer:  nlefsm           16       3.499      55.979     8.68
timer:  DHSCF            45       8.342     375.375    58.21
timer:  DHSCF1            8       0.053       0.424     0.07
timer:  DHSCF2            8       2.193      17.541     2.72
timer:  REORD           286       0.000       0.028     0.00
timer:  POISON           53       0.005       0.240     0.04
timer:  DHSCF3           45       7.268     327.060    50.72
timer:  rhoofd           45       3.337     150.157    23.29
timer:  cellXC           45       0.119       5.336     0.83
timer:  vmat             45       3.806     171.275    26.56
timer:  MolMec           16       0.000       0.000     0.00
timer:  diagon           37       5.534     204.761    31.75
timer:  c-eigval       4097       0.015      62.948     9.76
timer:  c-buildHS      4097       0.011      44.471     6.90
timer:  cdiag          8094       0.007      56.289     8.73
timer:  cdiag1         8094       0.000       3.997     0.62
timer:  cdiag2         8094       0.002      14.998     2.33
timer:  cdiag3         8094       0.004      36.106     5.60
timer:  cdiag4         8094       0.000       1.040     0.16
timer:  c-eigvec       3997       0.020      81.467    12.63
timer:  c-buildD       3996       0.015      61.578     9.55
timer:  DHSCF4            8       3.791      30.326     4.70
timer:  dfscf             8       3.567      28.534     4.43
timer:  overfsm           8       0.116       0.928     0.14
timer:  optical           1       0.000       0.000     0.00
  

elaps: ELAPSED times:
elaps:  Routine       Calls   Time/call    Tot.time        %
elaps:  siesta            1     647.833     647.833   100.00
elaps:  Setup             1       0.191       0.191     0.03
elaps:  bands             3       0.508       1.525     0.24
elaps:  writewave         3       0.007       0.020     0.00
elaps:  KSV_init          1       0.000       0.000     0.00
elaps:  IterMD            8      80.751     646.010    99.72
elaps:  hsparse           8       0.167       1.333     0.21
elaps:  overlap           8       0.142       1.133     0.17
elaps:  IterSCF          37      14.187     524.929    81.03
elaps:  kinefsm          16       0.130       2.084     0.32
elaps:  nlefsm           16       3.517      56.276     8.69
elaps:  DHSCF            45       8.373     376.783    58.16
elaps:  DHSCF1            8       0.053       0.428     0.07
elaps:  DHSCF2            8       2.201      17.606     2.72
elaps:  REORD           286       0.000       0.022     0.00
elaps:  POISON           53       0.005       0.253     0.04
elaps:  DHSCF3           45       7.295     328.284    50.67
elaps:  rhoofd           45       3.349     150.707    23.26
elaps:  cellXC           45       0.119       5.343     0.82
elaps:  vmat             45       3.821     171.953    26.54
elaps:  MolMec           16       0.000       0.000     0.00
elaps:  diagon           37       5.566     205.931    31.79
elaps:  c-eigval       4097       0.015      63.199     9.76
elaps:  c-buildHS      4097       0.011      44.668     6.89
elaps:  cdiag          8094       0.007      56.765     8.76
elaps:  cdiag1         8094       0.001       4.178     0.64
elaps:  cdiag2         8094       0.002      14.889     2.30
elaps:  cdiag3         8094       0.005      36.478     5.63
elaps:  cdiag4         8094       0.000       1.051     0.16
elaps:  c-eigvec       3997       0.020      81.932    12.65
elaps:  c-buildD       3996       0.016      62.036     9.58
elaps:  DHSCF4            8       3.806      30.452     4.70
elaps:  dfscf             8       3.582      28.654     4.42
elaps:  overfsm           8       0.118       0.940     0.15
elaps:  optical           1       0.000       0.000     0.00
  
>> End of run:   9-MAY-2013  15:12:52

=====================================================================================
=   BAD TERMINATION OF ONE OF YOUR APPLICATION PROCESSES
=   EXIT CODE: 134
=   CLEANING UP REMAINING PROCESSES
=   YOU CAN IGNORE THE BELOW CLEANUP MESSAGES
=====================================================================================
APPLICATION TERMINATED WITH THE EXIT STRING: Aborted (signal 6)
