Siesta Version:                                        siesta-3.2
Architecture  : x86_64-unknown-linux-gnu--unknown
Compiler flags: f95 -g -O2
SERIAL version

* Running in serial mode
Siesta Version:                                        siesta-3.2
Architecture  : x86_64-unknown-linux-gnu--unknown
Compiler flags: f95 -g -O2
SERIAL version

* Running in serial mode
>> Start of run:  10-MAY-2013   1:39:06
>> Start of run:  10-MAY-2013   1:39:06

                           ***********************       
                           *  WELCOME TO SIESTA  *       
                           ***********************       

reinit: Reading from standard input
************************** Dump of input data file ****************************

                           ***********************       
                           *  WELCOME TO SIESTA  *       
                           ***********************       

reinit: Reading from standard input
************************** End of input data file *****************************

reinit: -----------------------------------------------------------------------
reinit: System Name: 
reinit: -----------------------------------------------------------------------
reinit: System Label: siesta                                                      
reinit: -----------------------------------------------------------------------
************************** Dump of input data file ****************************
# FDF for silicon
SystemName             silicon          # Descriptive name of the system
SystemLabel            si          # Short name for naming files
NumberOfAtoms 8
NumberOfSpecies 1
%block ChemicalSpeciesLabel
1 14 Si
%endblock ChemicalSpeciesLabel
LatticeConstant  5.35 Ang
##Basis set Definition##
PAO.BasisType          split        # Type of PAO basis set
PAO.EnergyShift        50 meV
PAO.BasisSize          DZP          # (DZP) Double-z + polarization
#%block LatticeVectors
#0.500 0.500 0.000
#0.500 0.000 0.500
#0.000 0.500 0.500
#%endblock LatticeVectors
AtomicCoordinatesFormat NotScaledCartesianAng
%block AtomicCoordinatesAndAtomicSpecies
	0.00000000	0.00000000	0.00000000  1 Si  1
	1.36000000	1.36000000	1.36000000  1 Si  2
	2.72000000	2.72000000	0.00000000  1 Si  3
	4.08000000	4.08000000	1.36000000  1 Si  4
	2.72000000	0.00000000	2.72000000  1 Si  5
	4.08000000	1.36000000	4.08000000  1 Si  6
	0.00000000	2.72000000	2.72000000  1 Si  7
	1.36000000	4.08000000	4.08000000  1 Si  8
%endblock AtomicCoordinatesAndAtomicSpecies
MeshCutoff 100.0 Ry # 100, 120, 180, 260
kgrid_cutoff 30.0 Bohr # 30, 35, 40, 45
DM.Mixingweight  0.3
DM.NumberPulay    3
DM.Tolerance      1.d-3
DM.UseSaveDM      true
ElectronicTemperature 25 meV
SolutionMethod    diagon
XC.functional      GGA	    # Generalized Gradient Approximation
XC.authors        PBE          # Perdew-Burke-Ernzerhof
SpinPolarized     false
MD.TypeOfRun           CG           # Type of dynamics:
MD.VariableCell        true
MD.NumCGsteps          100          # Number of CG steps for coordinate optimization
MD.MaxCGDispl          0.2 Bohr     # Maximum atomic displacement
                                    #   in one CG step (Bohr)
MD.MaxForceTol         0.04 eV/Ang  # Tolerance in the maximum
                                    #   atomic force (Ry/Bohr)
				
##Output Specification##
WriteMDhistory         true         # Trajectory information
WriteCoorStep          true
WriteCoorXmol          true
WriteMDXmol            true
WriteEigenvalues true
WriteKbands      true
WriteBands       true
WriteWaveFunctions true
WriteMullikenPoP   1
%block BandLines
1	1.000	1.000 1.000 L
25	0.000	0.000	0.000 \Gamma
30	2.000	0.000	0.000 X
10	2.000	0.500	0.500 U
35	0.000	0.000	0.000 \Gamma
%endblock BandLines
%block WaveFuncKPoints
0.0 0.0 0.0 from 1 to 50 # > 16 = 4/2*8 (Valenzelektronen/2, Atomzahl ...)
%endblock WaveFuncKpoints
************************** End of input data file *****************************

initatom: Reading input for the pseudopotentials and atomic orbitals ----------
No species found!!!
ERROR STOP from Node:    0

reinit: -----------------------------------------------------------------------
reinit: System Name: silicon
reinit: -----------------------------------------------------------------------
reinit: System Label: si                                                          
reinit: -----------------------------------------------------------------------

initatom: Reading input for the pseudopotentials and atomic orbitals ----------
 Species number:            1  Label: Si Atomic number:          14
Ground state valence configuration:   3s02  3p02
Reading pseudopotential information in formatted form from Si.psf

Valence configuration for pseudopotential generation:
3s( 2.00) rc: 1.75
3p( 2.00) rc: 1.94
3d( 0.00) rc: 2.09
4f( 0.00) rc: 2.09
For Si, standard SIESTA heuristics set lmxkb to 3
 (one more than the basis l, including polarization orbitals).
Use PS.lmax or PS.KBprojectors blocks to override.

<basis_specs>
===============================================================================
Si                   Z=  14    Mass=  28.090        Charge= 0.17977+309
Lmxo=1 Lmxkb= 3    BasisType=split      Semic=F
L=0  Nsemic=0  Cnfigmx=3
          n=1  nzeta=2  polorb=0
            splnorm:   0.15000    
               vcte:    0.0000    
               rinn:    0.0000    
                rcs:    0.0000      0.0000    
            lambdas:    1.0000      1.0000    
L=1  Nsemic=0  Cnfigmx=3
          n=1  nzeta=2  polorb=1
            splnorm:   0.15000    
               vcte:    0.0000    
               rinn:    0.0000    
                rcs:    0.0000      0.0000    
            lambdas:    1.0000      1.0000    
-------------------------------------------------------------------------------
L=0  Nkbl=1  erefs: 0.17977+309
L=1  Nkbl=1  erefs: 0.17977+309
L=2  Nkbl=1  erefs: 0.17977+309
L=3  Nkbl=1  erefs: 0.17977+309
===============================================================================
</basis_specs>

atom: Called for Si                    (Z =  14)

read_vps: Pseudopotential generation method:
read_vps: ATM3      Troullier-Martins                       
Total valence charge:    4.00000

read_vps: Pseudopotential includes a core correction:
read_vps: Pseudo-core for xc-correction

xc_check: Exchange-correlation functional:
xc_check: GGA Perdew, Burke & Ernzerhof 1996
V l=0 = -2*Zval/r beyond r=  2.0104
V l=1 = -2*Zval/r beyond r=  2.0873
V l=2 = -2*Zval/r beyond r=  2.1670
V l=3 = -2*Zval/r beyond r=  2.1670
All V_l potentials equal beyond r=  2.0613
This should be close to max(r_c) in ps generation
All pots = -2*Zval/r beyond r=  2.1670

VLOCAL1: 99.0% of the norm of Vloc inside     10.216 Ry
VLOCAL1: 99.9% of the norm of Vloc inside     23.282 Ry
atom: Maximum radius for 4*pi*r*r*local-pseudopot. charge    2.45560
atom: Maximum radius for r*vlocal+2*Zval:    2.14012
GHOST: No ghost state for L =  0
GHOST: No ghost state for L =  1
GHOST: No ghost state for L =  2
GHOST: No ghost state for L =  3

KBgen: Kleinman-Bylander projectors: 
   l= 0   rc=  2.306811   el= -0.791441   Ekb=  5.289775   kbcos=  0.291595
   l= 1   rc=  2.394965   el= -0.300632   Ekb=  1.944256   kbcos=  0.287657
   l= 2   rc=  2.549439   el=  0.001958   Ekb= -1.788485   kbcos= -0.056492
   l= 3   rc=  2.782581   el=  0.003046   Ekb= -0.472620   kbcos= -0.006203

KBgen: Total number of  Kleinman-Bylander projectors:   16
atom: -------------------------------------------------------------------------

atom: SANKEY-TYPE ORBITALS:
atom: Selected multiple-zeta basis: split     

SPLIT: Orbitals with angular momentum L= 0

SPLIT: Basis orbitals for state 3s

SPLIT: PAO cut-off radius determined from an
SPLIT: energy shift=  0.003675 Ry

   izeta = 1
                 lambda =    1.000000
                     rc =    6.116033
                 energy =   -0.788343
                kinetic =    0.528041
    potential(screened) =   -1.316383
       potential(ionic) =   -3.704743

   izeta = 2
                 rmatch =    4.530823
              splitnorm =    0.150000
                 energy =   -0.692892
                kinetic =    0.848665
    potential(screened) =   -1.541557
       potential(ionic) =   -4.044985

SPLIT: Orbitals with angular momentum L= 1

SPLIT: Basis orbitals for state 3p

SPLIT: PAO cut-off radius determined from an
SPLIT: energy shift=  0.003675 Ry

   izeta = 1
                 lambda =    1.000000
                     rc =    7.853192
                 energy =   -0.297152
                kinetic =    0.797948
    potential(screened) =   -1.095101
       potential(ionic) =   -3.275753

   izeta = 2
                 rmatch =    5.330310
              splitnorm =    0.150000
                 energy =   -0.228170
                kinetic =    1.148579
    potential(screened) =   -1.376749
       potential(ionic) =   -3.739005

POLgen: Perturbative polarization orbital with L=  2

POLgen: Polarization orbital for state 3p

   izeta = 1
                     rc =    7.853192
                 energy =    0.340222
                kinetic =    1.096718
    potential(screened) =   -0.756496
       potential(ionic) =   -2.716423
atom: Total number of Sankey-type orbitals: 13

atm_pop: Valence configuration (for local Pseudopot. screening):
 3s( 2.00)                                                            
 3p( 2.00)                                                            
Vna: chval, zval:    4.00000   4.00000

Vna:  Cut-off radius for the neutral-atom potential:   7.853192
comcore: Pseudo-core radius Rcore=  2.999314

atom: _________________________________________________________________________

prinput: Basis input ----------------------------------------------------------

PAO.BasisType split     

%block ChemicalSpeciesLabel
    1   14 Si                      # Species index, atomic number, species label
%endblock ChemicalSpeciesLabel

%block PAO.Basis                 # Define Basis set
Si                    2                    # Species label, number of l-shells
 n=3   0   2                         # n, l, Nzeta 
   6.116      4.531   
   1.000      1.000   
 n=3   1   2 P   1                   # n, l, Nzeta, Polarization, NzetaPol
   7.853      5.330   
   1.000      1.000   
%endblock PAO.Basis

prinput: ----------------------------------------------------------------------

coor:   Atomic-coordinates input format  =     Cartesian coordinates
coor:                                          (in Angstroms)

siesta: Atomic coordinates (Bohr) and species
siesta:      0.00000   0.00000   0.00000  1        1
siesta:      2.57003   2.57003   2.57003  1        2
siesta:      5.14006   5.14006   0.00000  1        3
siesta:      7.71009   7.71009   2.57003  1        4
siesta:      5.14006   0.00000   5.14006  1        5
siesta:      7.71009   2.57003   7.71009  1        6
siesta:      0.00000   5.14006   5.14006  1        7
siesta:      2.57003   7.71009   7.71009  1        8

siesta: System type = bulk      

initatomlists: Number of atoms, orbitals, and projectors:      8   104   128

siesta: ******************** Simulation parameters ****************************
siesta:
siesta: The following are some of the parameters of the simulation.
siesta: A complete list of the parameters used, including default values,
siesta: can be found in file out.fdf
siesta:
redata: Non-Collinear-spin run           =     F
redata: SpinPolarized (Up/Down) run      =     F
redata: Number of spin components        =     1
redata: Long output                      =     F
redata: Number of Atomic Species         =        1
redata: Charge density info will appear in .RHO file
redata: Write Mulliken Pop.              =     Atomic and Orbital charges
redata: Mesh Cutoff                      =   100.0000  Ry
redata: Net charge of the system         =     0.0000 |e|
redata: Max. number of SCF Iter          =       50
redata: Performing Pulay mixing using    =     3 iterations
redata: Mix DM in first SCF step ?       =     F
redata: Write Pulay info on disk?        =     F
redata: Discard 1st Pulay DM after  kick =     F
redata: New DM Mixing Weight             =     0.3000
redata: New DM Occupancy tolerance       = 0.000000000001
redata: No kicks to SCF
redata: DM Mixing Weight for Kicks       =     0.5000
redata: DM Tolerance for SCF             =     0.001000
redata: Require Energy convergence for SCF =     F
redata: DM Energy tolerance for SCF      =     0.000100 eV
redata: Require Harris convergence for SCF =     F
redata: DM Harris energy tolerance for SCF =     0.000100 eV
redata: Using Saved Data (generic)   =     F
redata: Use continuation files for DM    =     T
redata: Neglect nonoverlap interactions  =     F
redata: Method of Calculation            =     Diagonalization
redata: Divide and Conquer               =     T
redata: Electronic Temperature           =     0.0018  Ry
redata: Fix the spin of the system       =     F
redata: Dynamics option                  =     CG coord. optimization
redata: Variable cell                    =     T
redata: Use continuation files for CG    =     F
redata: Max atomic displ per move        =     0.2000  Bohr
redata: Maximum number of CG moves       =      100
redata: Force tolerance                  =     0.0016  Ry/Bohr
redata: Stress tolerance                 =     1.0000  GPa
redata: ***********************************************************************
Total number of electrons:    32.000000
Total ionic charge:    32.000000
 Kpoints in:          108 . Kpoints trimmed:          108

siesta: k-grid: Number of k-points =   108
siesta: k-grid: Cutoff (effective) =    16.050 Ang
siesta: k-grid: Supercell and displacements
siesta: k-grid:    0   6   0      0.500
siesta: k-grid:    0   0   6      0.500
siesta: k-grid:    6   0   0      0.500
Naive supercell factors:     5    5    5

superc: Internal auxiliary supercell:     5 x     5 x     5  =     125
superc: Number of atoms, orbitals, and projectors:   1000  13000  16000

* Maximum dynamic memory allocated =     1 MB

siesta:                 ==============================
                            Begin CG move =      0
                        ==============================

outcoor: Atomic coordinates (Ang):                          
    0.00000000    0.00000000    0.00000000   1       1  Si
    1.36000000    1.36000000    1.36000000   1       2  Si
    2.72000000    2.72000000    0.00000000   1       3  Si
    4.08000000    4.08000000    1.36000000   1       4  Si
    2.72000000    0.00000000    2.72000000   1       5  Si
    4.08000000    1.36000000    4.08000000   1       6  Si
    0.00000000    2.72000000    2.72000000   1       7  Si
    1.36000000    4.08000000    4.08000000   1       8  Si

superc: Internal auxiliary supercell:     5 x     5 x     5  =     125
superc: Number of atoms, orbitals, and projectors:   1000  13000  16000

outcell: Unit cell vectors (Ang):
        5.350000    0.000000    0.000000
        0.000000    5.350000    0.000000
        0.000000    0.000000    5.350000

outcell: Cell vector modules (Ang)   :    5.350000    5.350000    5.350000
outcell: Cell angles (23,13,12) (deg):     90.0000     90.0000     90.0000
outcell: Cell volume (Ang**3)        :    153.1304
New_DM. Step:     1
Initializing Density Matrix...

InitMesh: MESH =    36 x    36 x    36 =       46656
InitMesh: Mesh cutoff (required, used) =   100.000   125.141 Ry

* Maximum dynamic memory allocated =    77 MB

stepf: Fermi-Dirac step function

siesta: Program's energy decomposition (eV):
siesta: Ebs     =      -354.662561
siesta: Eions   =      1510.441798
siesta: Ena     =       465.486759
siesta: Ekin    =       288.667622
siesta: Enl     =       156.605902
siesta: DEna    =         0.000001
siesta: DUscf   =         0.000000
siesta: DUext   =         0.000000
siesta: Exc     =      -448.025238
siesta: eta*DQ  =         0.000000
siesta: Emadel  =         0.000000
siesta: Emeta   =         0.000000
siesta: Emolmec =         0.000000
siesta: Ekinion =         0.000000
siesta: Eharris =     -1030.397695
siesta: Etot    =     -1047.706752
siesta: FreeEng =     -1047.706752

siesta: iscf   Eharris(eV)      E_KS(eV)   FreeEng(eV)   dDmax  Ef(eV)
siesta:    1    -1030.3977    -1047.7068    -1047.7068  1.7327 -5.4439
timer: Routine,Calls,Time,% = IterSCF        1      20.149  97.20
elaps: Routine,Calls,Wall,% = IterSCF        1      20.299  97.20
siesta:    2    -1030.1038    -1030.0289    -1030.0289  0.1077 -5.1216
siesta:    3    -1030.0933    -1030.7405    -1030.7405  0.0520 -5.1533
siesta:    4    -1030.0908    -1030.1205    -1030.1205  0.0066 -5.1708
siesta:    5    -1030.0907    -1030.1124    -1030.1124  0.0045 -5.1708
siesta:    6    -1030.0907    -1030.0871    -1030.0871  0.0005 -5.1710

siesta: E_KS(eV) =            -1030.0854

siesta: E_KS - E_eggbox =     -1030.0854

siesta: Atomic forces (eV/Ang):
----------------------------------------
   Tot    0.003606    0.003612    0.003617
----------------------------------------
   Max    0.816219
   Res    0.569781    sqrt( Sum f_i^2 / 3N )
----------------------------------------
   Max    0.816219    constrained

Stress-tensor-Voigt (kbar):      -98.93      -98.93      -98.93       13.43       13.43       13.43
(Free)E + p*V (eV/cell)    -1020.6298
Target enthalpy (eV/cell)    -1030.0854

siesta: Stress tensor (static) (eV/Ang**3):
        -0.061748    0.008380    0.008380
         0.008380   -0.061748    0.008380
         0.008380    0.008380   -0.061749

siesta: Pressure (static):         98.93309629  kBar

siesta: Stress tensor (total) (eV/Ang**3):
        -0.061748    0.008380    0.008380
         0.008380   -0.061748    0.008380
         0.008380    0.008380   -0.061749

siesta: Pressure (total):         98.93309629  kBar

mulliken: Mulliken Atomic and Orbital Populations:

Species: Si                  
Atom  Qatom  Qorb
               3s      3s      3py     3pz     3px     3py     3pz     3px     
               3Pdxy   3Pdyz   3Pdz2   3Pdxz   3Pdx2-y2
   1  4.022   0.512   0.639   0.155   0.155   0.155   0.604   0.604   0.604
              0.139   0.139   0.088   0.139   0.088
   2  3.984   0.619   0.583   0.185   0.185   0.185   0.566   0.566   0.566
              0.127   0.127   0.076   0.127   0.076
   3  3.993   0.581   0.602   0.165   0.195   0.165   0.585   0.565   0.585
              0.133   0.130   0.077   0.130   0.082
   4  4.005   0.547   0.619   0.174   0.141   0.174   0.586   0.607   0.586
              0.133   0.136   0.087   0.136   0.081
   5  3.993   0.581   0.602   0.195   0.165   0.165   0.565   0.585   0.585
              0.130   0.130   0.081   0.133   0.078
   6  4.005   0.547   0.619   0.141   0.174   0.174   0.607   0.586   0.586
              0.136   0.136   0.082   0.133   0.085
   7  3.993   0.581   0.602   0.165   0.165   0.195   0.585   0.585   0.565
              0.130   0.133   0.081   0.130   0.078
   8  4.005   0.547   0.619   0.174   0.174   0.141   0.586   0.586   0.607
              0.136   0.133   0.082   0.136   0.085

mulliken: Qtot =       32.000

cgvc: No target stress found, assuming hydrostatic MD.TargetPressure.

cgvc: Target stress (kBar)
cgvc:        -0.000       0.000       0.000
cgvc:         0.000      -0.000       0.000
cgvc:         0.000       0.000      -0.000

* Maximum dynamic memory allocated =    79 MB

siesta:                 ==============================
                            Begin CG move =      1
                        ==============================

outcoor: Atomic coordinates (Ang):                          
    0.01951544    0.01951529    0.01951524   1       1  Si
    1.37142455    1.37142457    1.37142461   1       2  Si
    2.73947558    2.73947556    0.01201550   1       3  Si
    4.09078692    4.09078700    1.36662087   1       4  Si
    2.73947558    0.01201602    2.73947567   1       5  Si
    4.09078692    1.36662077    4.09078718   1       6  Si
    0.01201606    2.73947551    2.73947576   1       7  Si
    1.36662071    4.09078704    4.09078721   1       8  Si
 Kpoints in:          108 . Kpoints trimmed:          108

siesta: k-grid: Number of k-points =   108
siesta: k-grid: Cutoff (effective) =    16.199 Ang
siesta: k-grid: Supercell and displacements
siesta: k-grid:    0   6   0      0.500
siesta: k-grid:    6   0   0      0.500
siesta: k-grid:    0   0   6      0.500
Naive supercell factors:     5    5    5

superc: Internal auxiliary supercell:     5 x     5 x     5  =     125
superc: Number of atoms, orbitals, and projectors:   1000  13000  16000

outcell: Unit cell vectors (Ang):
        5.399500   -0.006718   -0.006718
       -0.006718    5.399499   -0.006718
       -0.006718   -0.006718    5.399500

outcell: Cell vector modules (Ang)   :    5.399508    5.399508    5.399508
outcell: Cell angles (23,13,12) (deg):     90.1425     90.1425     90.1425
outcell: Cell volume (Ang**3)        :    157.4195
New_DM. Step:     2
Re-using DM from previous geometry...
Re-using DM without extrapolation (not allowed)
Density Matrix sparsity pattern changed.

InitMesh: MESH =    36 x    36 x    36 =       46656
InitMesh: Mesh cutoff (required, used) =   100.000   122.858 Ry

siesta: iscf   Eharris(eV)      E_KS(eV)   FreeEng(eV)   dDmax  Ef(eV)
siesta:    1    -1030.4580    -1029.4986    -1029.4986  0.0302 -5.1346
siesta:    2    -1030.5013    -1030.4136    -1030.4136  0.0278 -5.1290
siesta:    3    -1030.4431    -1030.2947    -1030.2947  0.0067 -5.1368
siesta:    4    -1030.4430    -1030.4307    -1030.4307  0.0007 -5.1389

siesta: E_KS(eV) =            -1030.4347

siesta: Atomic forces (eV/Ang):
----------------------------------------
   Tot    0.004820    0.004819    0.004823
----------------------------------------
   Max    0.299601
   Res    0.227650    sqrt( Sum f_i^2 / 3N )
----------------------------------------
   Max    0.299601    constrained

Stress-tensor-Voigt (kbar):      -64.80      -64.80      -64.80        0.24        0.24        0.24
(Free)E + p*V (eV/cell)    -1024.0677
Target enthalpy (eV/cell)    -1030.4347

siesta: Stress tensor (static) (eV/Ang**3):
        -0.040446    0.000147    0.000147
         0.000147   -0.040446    0.000147
         0.000147    0.000147   -0.040446

siesta: Pressure (static):         64.80217993  kBar

siesta: Stress tensor (total) (eV/Ang**3):
        -0.040446    0.000147    0.000147
         0.000147   -0.040446    0.000147
         0.000147    0.000147   -0.040446

siesta: Pressure (total):         64.80217993  kBar

mulliken: Mulliken Atomic and Orbital Populations:

Species: Si                  
Atom  Qatom  Qorb
               3s      3s      3py     3pz     3px     3py     3pz     3px     
               3Pdxy   3Pdyz   3Pdz2   3Pdxz   3Pdx2-y2
   1  4.007   0.563   0.611   0.183   0.183   0.183   0.576   0.576   0.576
              0.131   0.131   0.081   0.131   0.081
   2  3.992   0.617   0.582   0.202   0.202   0.202   0.554   0.554   0.554
              0.125   0.125   0.075   0.125   0.075
   3  3.998   0.599   0.591   0.189   0.204   0.189   0.566   0.556   0.566
              0.128   0.127   0.076   0.127   0.078
   4  4.003   0.580   0.602   0.195   0.179   0.195   0.565   0.576   0.565
              0.128   0.130   0.080   0.130   0.077
   5  3.998   0.599   0.591   0.204   0.189   0.189   0.556   0.566   0.566
              0.127   0.127   0.078   0.128   0.076
   6  4.003   0.580   0.602   0.179   0.195   0.195   0.576   0.565   0.565
              0.130   0.130   0.078   0.128   0.080
   7  3.998   0.599   0.591   0.189   0.189   0.204   0.566   0.566   0.556
              0.127   0.128   0.078   0.127   0.076
   8  4.003   0.580   0.602   0.195   0.195   0.179   0.565   0.565   0.576
              0.130   0.128   0.078   0.130   0.080

mulliken: Qtot =       32.000

* Maximum dynamic memory allocated =    79 MB

siesta:                 ==============================
                            Begin CG move =      2
                        ==============================

outcoor: Atomic coordinates (Ang):                          
    0.05128375    0.05128336    0.05128321   1       1  Si
    1.38976670    1.38976675    1.38976685   1       2  Si
    2.77046467    2.77046462    0.03198216   1       3  Si
    4.10735987    4.10736009    1.37758430   1       4  Si
    2.77046469    0.03198351    2.77046492   1       5  Si
    4.10735987    1.37758404    4.10736056   1       6  Si
    0.03198364    2.77046451    2.77046515   1       7  Si
    1.37758388    4.10736020    4.10736064   1       8  Si
 Kpoints in:          108 . Kpoints trimmed:          108

siesta: k-grid: Number of k-points =   108
siesta: k-grid: Cutoff (effective) =    16.436 Ang
siesta: k-grid: Supercell and displacements
siesta: k-grid:    0   6   0      0.500
siesta: k-grid:    6   0   0      0.500
siesta: k-grid:    0   0   6      0.500
Naive supercell factors:     5    5    5

superc: Internal auxiliary supercell:     5 x     5 x     5  =     125
superc: Number of atoms, orbitals, and projectors:   1000  13000  16000

outcell: Unit cell vectors (Ang):
        5.478699   -0.017466   -0.017466
       -0.017466    5.478699   -0.017466
       -0.017466   -0.017466    5.478699

outcell: Cell vector modules (Ang)   :    5.478754    5.478754    5.478755
outcell: Cell angles (23,13,12) (deg):     90.3647     90.3647     90.3647
outcell: Cell volume (Ang**3)        :    164.4444
New_DM. Step:     3
Re-using DM from previous geometry...
Re-using DM without extrapolation (not allowed)
Density Matrix sparsity pattern changed.

InitMesh: MESH =    36 x    36 x    36 =       46656
InitMesh: Mesh cutoff (required, used) =   100.000   119.338 Ry

siesta: iscf   Eharris(eV)      E_KS(eV)   FreeEng(eV)   dDmax  Ef(eV)
siesta:    1    -1030.6292    -1029.2906    -1029.2906  0.0407 -4.9948
siesta:    2    -1030.7766    -1030.4805    -1030.4805  0.0531 -5.0266
siesta:    3    -1030.5795    -1030.2803    -1030.2803  0.0130 -5.0110
siesta:    4    -1030.5789    -1030.5461    -1030.5461  0.0015 -5.0119
siesta:    5    -1030.5789    -1030.5568    -1030.5568  0.0009 -5.0114

siesta: E_KS(eV) =            -1030.5714

siesta: Atomic forces (eV/Ang):
----------------------------------------
   Tot   -0.001774   -0.001767   -0.001754
----------------------------------------
   Max    0.519746
   Res    0.408322    sqrt( Sum f_i^2 / 3N )
----------------------------------------
   Max    0.519746    constrained

Stress-tensor-Voigt (kbar):      -21.40      -21.40      -21.40      -16.50      -16.50      -16.50
(Free)E + p*V (eV/cell)    -1028.3745
Target enthalpy (eV/cell)    -1030.5714

siesta: Stress tensor (static) (eV/Ang**3):
        -0.013360   -0.010296   -0.010296
        -0.010296   -0.013360   -0.010297
        -0.010296   -0.010297   -0.013360

siesta: Pressure (static):         21.40464270  kBar

siesta: Stress tensor (total) (eV/Ang**3):
        -0.013360   -0.010296   -0.010296
        -0.010296   -0.013360   -0.010297
        -0.010296   -0.010297   -0.013360

siesta: Pressure (total):         21.40464270  kBar

mulliken: Mulliken Atomic and Orbital Populations:

Species: Si                  
Atom  Qatom  Qorb
               3s      3s      3py     3pz     3px     3py     3pz     3px     
               3Pdxy   3Pdyz   3Pdz2   3Pdxz   3Pdx2-y2
   1  3.999   0.640   0.571   0.236   0.236   0.236   0.527   0.527   0.527
              0.120   0.120   0.071   0.120   0.071
   2  4.002   0.611   0.586   0.222   0.222   0.222   0.541   0.541   0.541
              0.123   0.123   0.074   0.123   0.074
   3  4.000   0.616   0.583   0.228   0.219   0.228   0.535   0.541   0.535
              0.122   0.123   0.074   0.123   0.072
   4  4.000   0.627   0.578   0.226   0.232   0.226   0.536   0.532   0.536
              0.122   0.121   0.072   0.121   0.073
   5  4.000   0.616   0.583   0.219   0.228   0.228   0.541   0.535   0.535
              0.123   0.123   0.073   0.122   0.074
   6  4.000   0.627   0.578   0.232   0.226   0.226   0.532   0.536   0.536
              0.121   0.121   0.072   0.122   0.072
   7  4.000   0.616   0.583   0.228   0.228   0.219   0.535   0.535   0.541
              0.123   0.122   0.073   0.123   0.074
   8  4.000   0.627   0.578   0.226   0.226   0.232   0.536   0.536   0.532
              0.121   0.122   0.072   0.121   0.072

mulliken: Qtot =       32.000

* Maximum dynamic memory allocated =    86 MB

siesta:                 ==============================
                            Begin CG move =      3
                        ==============================

outcoor: Atomic coordinates (Ang):                          
    0.04539986    0.04539951    0.04539937   1       1  Si
    1.38639266    1.38639270    1.38639279   1       2  Si
    2.76478987    2.76478982    0.02824716   1       3  Si
    4.10437981    4.10438000    1.37553690   1       4  Si
    2.76478988    0.02824835    2.76479009   1       5  Si
    4.10437980    1.37553667    4.10438042   1       6  Si
    0.02824847    2.76478972    2.76479029   1       7  Si
    1.37553653    4.10438010    4.10438049   1       8  Si
 Kpoints in:          108 . Kpoints trimmed:          108

siesta: k-grid: Number of k-points =   108
siesta: k-grid: Cutoff (effective) =    16.393 Ang
siesta: k-grid: Supercell and displacements
siesta: k-grid:    0   6   0      0.500
siesta: k-grid:    6   0   0      0.500
siesta: k-grid:    0   0   6      0.500
Naive supercell factors:     5    5    5

superc: Internal auxiliary supercell:     5 x     5 x     5  =     125
superc: Number of atoms, orbitals, and projectors:   1000  13000  16000

outcell: Unit cell vectors (Ang):
        5.464155   -0.015492   -0.015492
       -0.015492    5.464155   -0.015492
       -0.015492   -0.015492    5.464155

outcell: Cell vector modules (Ang)   :    5.464199    5.464199    5.464199
outcell: Cell angles (23,13,12) (deg):     90.3244     90.3244     90.3244
outcell: Cell volume (Ang**3)        :    163.1393
New_DM. Step:     4
Re-using DM from previous geometry...
Re-using DM without extrapolation (not allowed)
Density Matrix sparsity pattern changed.

InitMesh: MESH =    36 x    36 x    36 =       46656
InitMesh: Mesh cutoff (required, used) =   100.000   119.972 Ry

siesta: iscf   Eharris(eV)      E_KS(eV)   FreeEng(eV)   dDmax  Ef(eV)
siesta:    1    -1030.5918    -1030.7878    -1030.7878  0.0340 -5.0337
siesta:    2    -1030.5967    -1030.5869    -1030.5869  0.0094 -5.0293
siesta:    3    -1030.5902    -1030.6006    -1030.6006  0.0022 -5.0298
siesta:    4    -1030.5902    -1030.5890    -1030.5890  0.0003 -5.0298

siesta: E_KS(eV) =            -1030.5892

siesta: Atomic forces (eV/Ang):
----------------------------------------
   Tot   -0.002387   -0.002372   -0.002358
----------------------------------------
   Max    0.385634
   Res    0.320290    sqrt( Sum f_i^2 / 3N )
----------------------------------------
   Max    0.385634    constrained

Stress-tensor-Voigt (kbar):      -27.97      -27.97      -27.97      -13.90      -13.90      -13.90
(Free)E + p*V (eV/cell)    -1027.7416
Target enthalpy (eV/cell)    -1030.5892

siesta: Stress tensor (static) (eV/Ang**3):
        -0.017455   -0.008675   -0.008675
        -0.008675   -0.017455   -0.008675
        -0.008675   -0.008675   -0.017455

siesta: Pressure (static):         27.96590443  kBar

siesta: Stress tensor (total) (eV/Ang**3):
        -0.017455   -0.008675   -0.008675
        -0.008675   -0.017455   -0.008675
        -0.008675   -0.008675   -0.017455

siesta: Pressure (total):         27.96590443  kBar

mulliken: Mulliken Atomic and Orbital Populations:

Species: Si                  
Atom  Qatom  Qorb
               3s      3s      3py     3pz     3px     3py     3pz     3px     
               3Pdxy   3Pdyz   3Pdz2   3Pdxz   3Pdx2-y2
   1  3.998   0.625   0.579   0.226   0.226   0.226   0.536   0.536   0.536
              0.122   0.122   0.072   0.122   0.072
   2  4.001   0.612   0.586   0.220   0.220   0.220   0.542   0.542   0.542
              0.123   0.123   0.074   0.123   0.074
   3  4.000   0.613   0.585   0.222   0.216   0.222   0.540   0.544   0.540
              0.123   0.123   0.074   0.123   0.073
   4  4.000   0.618   0.582   0.221   0.223   0.221   0.541   0.539   0.541
              0.123   0.123   0.073   0.123   0.073
   5  4.000   0.613   0.585   0.216   0.222   0.222   0.544   0.540   0.540
              0.123   0.123   0.074   0.123   0.074
   6  4.000   0.618   0.582   0.223   0.221   0.221   0.539   0.541   0.541
              0.123   0.123   0.073   0.123   0.073
   7  4.000   0.613   0.585   0.222   0.222   0.216   0.540   0.540   0.544
              0.123   0.123   0.074   0.123   0.074
   8  4.000   0.618   0.582   0.221   0.221   0.223   0.541   0.541   0.539
              0.123   0.123   0.073   0.123   0.073

mulliken: Qtot =       32.000

cgvc: Finished line minimization    1.  Mean atomic displacement =    0.1543

* Maximum dynamic memory allocated =    86 MB

siesta:                 ==============================
                            Begin CG move =      4
                        ==============================

outcoor: Atomic coordinates (Ang):                          
    0.02145953    0.02146066    0.02146299   1       1  Si
    1.46334105    1.46334141    1.46334089   1       2  Si
    2.80165942    2.80165984    0.03791276   1       3  Si
    4.24147470    4.24147422    1.47241200   1       4  Si
    2.80165904    0.03791092    2.80166035   1       5  Si
    4.24147476    1.47241239    4.24147423   1       6  Si
    0.03791015    2.80165990    2.80166065   1       7  Si
    1.47241233    4.24147479    4.24147377   1       8  Si
 Kpoints in:          108 . Kpoints trimmed:          108

siesta: k-grid: Number of k-points =   108
siesta: k-grid: Cutoff (effective) =    16.732 Ang
siesta: k-grid: Supercell and displacements
siesta: k-grid:    0   6   0      0.500
siesta: k-grid:    0   0   6      0.500
siesta: k-grid:    6   0   0      0.500
Naive supercell factors:     5    5    5

superc: Internal auxiliary supercell:     5 x     5 x     5  =     125
superc: Number of atoms, orbitals, and projectors:   1000  13000  16000

outcell: Unit cell vectors (Ang):
        5.577399    0.011095    0.011096
        0.011095    5.577399    0.011096
        0.011096    0.011096    5.577399

outcell: Cell vector modules (Ang)   :    5.577421    5.577421    5.577421
outcell: Cell angles (23,13,12) (deg):     89.7718     89.7718     89.7718
outcell: Cell volume (Ang**3)        :    173.4962
New_DM. Step:     5
Re-using DM from previous geometry...
Re-using DM without extrapolation (not allowed)
Density Matrix sparsity pattern changed.

InitMesh: MESH =    36 x    36 x    36 =       46656
InitMesh: Mesh cutoff (required, used) =   100.000   115.147 Ry

siesta: iscf   Eharris(eV)      E_KS(eV)   FreeEng(eV)   dDmax  Ef(eV)
siesta:    1    -1030.5122    -1028.8871    -1028.8871  0.0458 -4.8265
siesta:    2    -1030.5148    -1030.4836    -1030.4836  0.0236 -4.8329
siesta:    3    -1030.4975    -1030.4594    -1030.4594  0.0043 -4.8317
siesta:    4    -1030.4967    -1030.4923    -1030.4923  0.0019 -4.8334
siesta:    5    -1030.4966    -1030.5071    -1030.5071  0.0009 -4.8345

siesta: E_KS(eV) =            -1030.5014

siesta: Atomic forces (eV/Ang):
----------------------------------------
   Tot    0.010273    0.010290    0.010221
----------------------------------------
   Max    0.604870
   Res    0.478768    sqrt( Sum f_i^2 / 3N )
----------------------------------------
   Max    0.604870    constrained

Stress-tensor-Voigt (kbar):       22.88       22.88       22.87       13.80       13.80       13.80
(Free)E + p*V (eV/cell)    -1032.9785
Target enthalpy (eV/cell)    -1030.5014

siesta: Stress tensor (static) (eV/Ang**3):
         0.014278    0.008614    0.008616
         0.008614    0.014277    0.008616
         0.008616    0.008616    0.014277

siesta: Pressure (static):        -22.87532870  kBar

siesta: Stress tensor (total) (eV/Ang**3):
         0.014278    0.008614    0.008616
         0.008614    0.014277    0.008616
         0.008616    0.008616    0.014277

siesta: Pressure (total):        -22.87532870  kBar

mulliken: Mulliken Atomic and Orbital Populations:

Species: Si                  
Atom  Qatom  Qorb
               3s      3s      3py     3pz     3px     3py     3pz     3px     
               3Pdxy   3Pdyz   3Pdz2   3Pdxz   3Pdx2-y2
   1  4.001   0.684   0.550   0.277   0.277   0.277   0.490   0.490   0.490
              0.112   0.112   0.065   0.112   0.065
   2  4.002   0.643   0.570   0.259   0.259   0.259   0.509   0.509   0.509
              0.116   0.116   0.069   0.116   0.069
   3  4.000   0.657   0.564   0.269   0.261   0.269   0.498   0.504   0.498
              0.114   0.115   0.068   0.115   0.066
   4  3.999   0.672   0.556   0.268   0.276   0.268   0.498   0.492   0.498
              0.114   0.113   0.065   0.113   0.067
   5  4.000   0.657   0.564   0.261   0.269   0.269   0.504   0.498   0.498
              0.115   0.115   0.067   0.114   0.068
   6  3.999   0.672   0.556   0.276   0.268   0.268   0.492   0.498   0.498
              0.113   0.113   0.066   0.114   0.065
   7  4.000   0.657   0.564   0.269   0.269   0.261   0.498   0.498   0.504
              0.115   0.114   0.067   0.115   0.068
   8  3.999   0.672   0.556   0.268   0.268   0.276   0.498   0.498   0.492
              0.113   0.114   0.066   0.113   0.065

mulliken: Qtot =       32.000

* Maximum dynamic memory allocated =    86 MB

siesta:                 ==============================
                            Begin CG move =      5
                        ==============================

outcoor: Atomic coordinates (Ang):                          
    0.03496665    0.03496695    0.03496790   1       1  Si
    1.42027108    1.42027126    1.42027108   1       2  Si
    2.78137669    2.78137685    0.03270560   1       3  Si
    4.16500413    4.16500403    1.41830999   1       4  Si
    2.78137654    0.03270546    2.78137723   1       5  Si
    4.16500415    1.41831003    4.16500426   1       6  Si
    0.03270518    2.78137683    2.78137747   1       7  Si
    1.41830993    4.16500433    4.16500411   1       8  Si
 Kpoints in:          108 . Kpoints trimmed:          108

siesta: k-grid: Number of k-points =   108
siesta: k-grid: Cutoff (effective) =    16.543 Ang
siesta: k-grid: Supercell and displacements
siesta: k-grid:    0   6   0      0.500
siesta: k-grid:    6   0   0      0.500
siesta: k-grid:    0   0   6      0.500
Naive supercell factors:     5    5    5

superc: Internal auxiliary supercell:     5 x     5 x     5  =     125
superc: Number of atoms, orbitals, and projectors:   1000  13000  16000

outcell: Unit cell vectors (Ang):
        5.514386   -0.003699   -0.003699
       -0.003699    5.514386   -0.003699
       -0.003699   -0.003699    5.514386

outcell: Cell vector modules (Ang)   :    5.514388    5.514388    5.514388
outcell: Cell angles (23,13,12) (deg):     90.0768     90.0768     90.0768
outcell: Cell volume (Ang**3)        :    167.6837
New_DM. Step:     6
Re-using DM from previous geometry...
Re-using DM without extrapolation (not allowed)
Density Matrix sparsity pattern changed.

InitMesh: MESH =    36 x    36 x    36 =       46656
InitMesh: Mesh cutoff (required, used) =   100.000   117.791 Ry

siesta: iscf   Eharris(eV)      E_KS(eV)   FreeEng(eV)   dDmax  Ef(eV)
siesta:    1    -1030.6698    -1031.4683    -1031.4683  0.0261 -4.9960
siesta:    2    -1030.6706    -1030.6617    -1030.6617  0.0124 -4.9944
siesta:    3    -1030.6657    -1030.6809    -1030.6809  0.0024 -4.9961
siesta:    4    -1030.6654    -1030.6645    -1030.6645  0.0010 -4.9923
siesta:    5    -1030.6654    -1030.6585    -1030.6585  0.0005 -4.9926

siesta: E_KS(eV) =            -1030.6616

siesta: Atomic forces (eV/Ang):
----------------------------------------
   Tot    0.001308    0.001313    0.001309
----------------------------------------
   Max    0.189142
   Res    0.126973    sqrt( Sum f_i^2 / 3N )
----------------------------------------
   Max    0.189142    constrained

Stress-tensor-Voigt (kbar):       -1.88       -1.88       -1.88        1.69        1.69        1.69
(Free)E + p*V (eV/cell)    -1030.4644
Target enthalpy (eV/cell)    -1030.6616

siesta: Stress tensor (static) (eV/Ang**3):
        -0.001176    0.001055    0.001055
         0.001055   -0.001176    0.001055
         0.001055    0.001055   -0.001176

siesta: Pressure (static):          1.88493384  kBar

siesta: Stress tensor (total) (eV/Ang**3):
        -0.001176    0.001055    0.001055
         0.001055   -0.001176    0.001055
         0.001055    0.001055   -0.001176

siesta: Pressure (total):          1.88493384  kBar

mulliken: Mulliken Atomic and Orbital Populations:

Species: Si                  
Atom  Qatom  Qorb
               3s      3s      3py     3pz     3px     3py     3pz     3px     
               3Pdxy   3Pdyz   3Pdz2   3Pdxz   3Pdx2-y2
   1  3.999   0.652   0.565   0.250   0.250   0.250   0.514   0.514   0.514
              0.117   0.117   0.069   0.117   0.069
   2  4.002   0.629   0.577   0.236   0.236   0.236   0.528   0.528   0.528
              0.120   0.120   0.071   0.120   0.071
   3  4.000   0.632   0.575   0.245   0.239   0.245   0.520   0.524   0.520
              0.119   0.120   0.071   0.120   0.070
   4  4.000   0.645   0.569   0.240   0.246   0.240   0.523   0.519   0.523
              0.119   0.118   0.069   0.118   0.070
   5  4.000   0.632   0.575   0.239   0.245   0.245   0.524   0.520   0.520
              0.120   0.120   0.070   0.119   0.071
   6  4.000   0.645   0.569   0.246   0.240   0.240   0.519   0.523   0.523
              0.118   0.118   0.070   0.119   0.070
   7  4.000   0.632   0.575   0.245   0.245   0.239   0.520   0.520   0.524
              0.120   0.119   0.070   0.120   0.071
   8  4.000   0.645   0.569   0.240   0.240   0.246   0.523   0.523   0.519
              0.118   0.119   0.070   0.118   0.070

mulliken: Qtot =       32.000

cgvc: Finished line minimization    2.  Mean atomic displacement =    0.0684

* Maximum dynamic memory allocated =    86 MB

siesta:                 ==============================
                            Begin CG move =      6
                        ==============================

outcoor: Atomic coordinates (Ang):                          
    0.02797796    0.02797836    0.02797952   1       1  Si
    1.41694051    1.41694071    1.41694202   1       2  Si
    2.82376115    2.82376154    0.03163775   1       3  Si
    4.21552509    4.21552530    1.41553133   1       4  Si
    2.82376020    0.03163825    2.82375971   1       5  Si
    4.21552371    1.41552912    4.21552386   1       6  Si
    0.03163767    2.82376052    2.82375960   1       7  Si
    1.41552892    4.21552423    4.21552388   1       8  Si
 Kpoints in:          108 . Kpoints trimmed:          108

siesta: k-grid: Number of k-points =   108
siesta: k-grid: Cutoff (effective) =    16.688 Ang
siesta: k-grid: Supercell and displacements
siesta: k-grid:    6   0   0      0.500
siesta: k-grid:    0   6   0      0.500
siesta: k-grid:    0   0   6      0.500
Naive supercell factors:     5    5    5

superc: Internal auxiliary supercell:     5 x     5 x     5  =     125
superc: Number of atoms, orbitals, and projectors:   1000  13000  16000

outcell: Unit cell vectors (Ang):
        5.562714    0.000246    0.000246
        0.000246    5.562714    0.000246
        0.000246    0.000246    5.562714

outcell: Cell vector modules (Ang)   :    5.562714    5.562714    5.562714
outcell: Cell angles (23,13,12) (deg):     89.9949     89.9949     89.9949
outcell: Cell volume (Ang**3)        :    172.1315
New_DM. Step:     7
Re-using DM from previous geometry...
Re-using DM without extrapolation (not allowed)
Density Matrix sparsity pattern changed.

InitMesh: MESH =    36 x    36 x    36 =       46656
InitMesh: Mesh cutoff (required, used) =   100.000   115.753 Ry

siesta: iscf   Eharris(eV)      E_KS(eV)   FreeEng(eV)   dDmax  Ef(eV)
siesta:    1    -1030.6638    -1029.9548    -1029.9548  0.0213 -4.9614
siesta:    2    -1030.7468    -1030.5863    -1030.5863  0.0445 -4.9731
siesta:    3    -1030.6385    -1030.4167    -1030.4167  0.0098 -4.9707
siesta:    4    -1030.6384    -1030.6221    -1030.6221  0.0011 -4.9729
siesta:    5    -1030.6384    -1030.6273    -1030.6273  0.0007 -4.9727

siesta: E_KS(eV) =            -1030.6355

siesta: Atomic forces (eV/Ang):
----------------------------------------
   Tot   -0.000049   -0.000057   -0.000040
----------------------------------------
   Max    0.187843
   Res    0.125710    sqrt( Sum f_i^2 / 3N )
----------------------------------------
   Max    0.187843    constrained

Stress-tensor-Voigt (kbar):       18.86       18.86       18.86       -0.49       -0.49       -0.49
(Free)E + p*V (eV/cell)    -1032.6615
Target enthalpy (eV/cell)    -1030.6355

siesta: Stress tensor (static) (eV/Ang**3):
         0.011770   -0.000304   -0.000304
        -0.000304    0.011770   -0.000304
        -0.000304   -0.000304    0.011770

siesta: Pressure (static):        -18.85786261  kBar

siesta: Stress tensor (total) (eV/Ang**3):
         0.011770   -0.000304   -0.000304
        -0.000304    0.011770   -0.000304
        -0.000304   -0.000304    0.011770

siesta: Pressure (total):        -18.85786261  kBar

mulliken: Mulliken Atomic and Orbital Populations:

Species: Si                  
Atom  Qatom  Qorb
               3s      3s      3py     3pz     3px     3py     3pz     3px     
               3Pdxy   3Pdyz   3Pdz2   3Pdxz   3Pdx2-y2
   1  4.001   0.636   0.573   0.254   0.254   0.254   0.512   0.512   0.512
              0.118   0.118   0.069   0.118   0.069
   2  3.999   0.673   0.555   0.270   0.270   0.270   0.496   0.496   0.496
              0.114   0.114   0.066   0.114   0.066
   3  4.000   0.669   0.557   0.262   0.272   0.262   0.503   0.496   0.503
              0.115   0.114   0.066   0.114   0.067
   4  4.000   0.656   0.564   0.263   0.256   0.263   0.504   0.508   0.504
              0.115   0.116   0.068   0.116   0.067
   5  4.000   0.669   0.557   0.272   0.262   0.262   0.496   0.503   0.503
              0.114   0.114   0.067   0.115   0.066
   6  4.000   0.656   0.564   0.256   0.263   0.263   0.508   0.504   0.504
              0.116   0.116   0.067   0.115   0.068
   7  4.000   0.669   0.557   0.262   0.262   0.272   0.503   0.503   0.496
              0.114   0.115   0.067   0.114   0.066
   8  4.000   0.656   0.564   0.263   0.263   0.256   0.504   0.504   0.508
              0.116   0.115   0.067   0.116   0.068

mulliken: Qtot =       32.000

* Maximum dynamic memory allocated =    86 MB

siesta:                 ==============================
                            Begin CG move =      7
                        ==============================

outcoor: Atomic coordinates (Ang):                          
    0.03282360    0.03282392    0.03282494   1       1  Si
    1.41928068    1.41928087    1.41928115   1       2  Si
    2.79443859    2.79443882    0.03238085   1       3  Si
    4.18059392    4.18059391    1.41748796   1       4  Si
    2.79443820    0.03238091    2.79443852   1       5  Si
    4.18059352    1.41748731    4.18059364   1       6  Si
    0.03238054    2.79443849    2.79443866   1       7  Si
    1.41748718    4.18059380    4.18059353   1       8  Si
 Kpoints in:          108 . Kpoints trimmed:          108

siesta: k-grid: Number of k-points =   108
siesta: k-grid: Cutoff (effective) =    16.588 Ang
siesta: k-grid: Supercell and displacements
siesta: k-grid:    0   6   0      0.500
siesta: k-grid:    6   0   0      0.500
siesta: k-grid:    0   0   6      0.500
Naive supercell factors:     5    5    5

superc: Internal auxiliary supercell:     5 x     5 x     5  =     125
superc: Number of atoms, orbitals, and projectors:   1000  13000  16000

outcell: Unit cell vectors (Ang):
        5.529315   -0.002480   -0.002480
       -0.002480    5.529315   -0.002480
       -0.002480   -0.002480    5.529315

outcell: Cell vector modules (Ang)   :    5.529316    5.529316    5.529316
outcell: Cell angles (23,13,12) (deg):     90.0514     90.0514     90.0514
outcell: Cell volume (Ang**3)        :    169.0494
New_DM. Step:     8
Re-using DM from previous geometry...
Re-using DM without extrapolation (not allowed)
Density Matrix sparsity pattern changed.

InitMesh: MESH =    36 x    36 x    36 =       46656
InitMesh: Mesh cutoff (required, used) =   100.000   117.156 Ry

siesta: iscf   Eharris(eV)      E_KS(eV)   FreeEng(eV)   dDmax  Ef(eV)
siesta:    1    -1030.6831    -1031.1113    -1031.1113  0.0144 -4.9892
siesta:    2    -1030.7194    -1030.6487    -1030.6487  0.0280 -4.9892
siesta:    3    -1030.6719    -1030.7920    -1030.7920  0.0065 -4.9839
siesta:    4    -1030.6719    -1030.6676    -1030.6676  0.0007 -4.9822

siesta: E_KS(eV) =            -1030.6682

siesta: Atomic forces (eV/Ang):
----------------------------------------
   Tot   -0.002316   -0.002317   -0.002299
----------------------------------------
   Max    0.076545
   Res    0.055722    sqrt( Sum f_i^2 / 3N )
----------------------------------------
   Max    0.076545    constrained

Stress-tensor-Voigt (kbar):        5.14        5.14        5.14        1.04        1.04        1.04
(Free)E + p*V (eV/cell)    -1031.2103
Target enthalpy (eV/cell)    -1030.6682

siesta: Stress tensor (static) (eV/Ang**3):
         0.003206    0.000650    0.000650
         0.000650    0.003206    0.000650
         0.000650    0.000650    0.003206

siesta: Pressure (static):         -5.13721779  kBar

siesta: Stress tensor (total) (eV/Ang**3):
         0.003206    0.000650    0.000650
         0.000650    0.003206    0.000650
         0.000650    0.000650    0.003206

siesta: Pressure (total):         -5.13721779  kBar

mulliken: Mulliken Atomic and Orbital Populations:

Species: Si                  
Atom  Qatom  Qorb
               3s      3s      3py     3pz     3px     3py     3pz     3px     
               3Pdxy   3Pdyz   3Pdz2   3Pdxz   3Pdx2-y2
   1  4.000   0.647   0.568   0.252   0.252   0.252   0.513   0.513   0.513
              0.117   0.117   0.069   0.117   0.069
   2  4.000   0.644   0.569   0.245   0.245   0.245   0.519   0.519   0.519
              0.118   0.118   0.070   0.118   0.070
   3  4.000   0.643   0.570   0.251   0.250   0.251   0.514   0.515   0.514
              0.118   0.118   0.069   0.118   0.069
   4  4.000   0.648   0.567   0.247   0.248   0.247   0.517   0.516   0.517
              0.118   0.118   0.069   0.118   0.069
   5  4.000   0.643   0.570   0.250   0.251   0.251   0.515   0.514   0.514
              0.118   0.118   0.069   0.118   0.069
   6  4.000   0.648   0.567   0.248   0.247   0.247   0.516   0.517   0.517
              0.118   0.118   0.069   0.118   0.069
   7  4.000   0.643   0.570   0.251   0.251   0.250   0.514   0.514   0.515
              0.118   0.118   0.069   0.118   0.069
   8  4.000   0.648   0.567   0.247   0.247   0.248   0.517   0.517   0.516
              0.118   0.118   0.069   0.118   0.069

mulliken: Qtot =       32.000

cgvc: Finished line minimization    3.  Mean atomic displacement =    0.0211

* Maximum dynamic memory allocated =    86 MB

siesta:                 ==============================
                            Begin CG move =      8
                        ==============================

outcoor: Atomic coordinates (Ang):                          
    0.03668301    0.03668254    0.03668351   1       1  Si
    1.40835691    1.40835727    1.40835709   1       2  Si
    2.79281696    2.79281691    0.03200036   1       3  Si
    4.16471888    4.16471939    1.40544578   1       4  Si
    2.79281650    0.03200021    2.79281750   1       5  Si
    4.16471860    1.40544538    4.16471944   1       6  Si
    0.03199992    2.79281661    2.79281744   1       7  Si
    1.40544519    4.16471888    4.16471935   1       8  Si
 Kpoints in:          108 . Kpoints trimmed:          108

siesta: k-grid: Number of k-points =   108
siesta: k-grid: Cutoff (effective) =    16.549 Ang
siesta: k-grid: Supercell and displacements
siesta: k-grid:    0   6   0      0.500
siesta: k-grid:    6   0   0      0.500
siesta: k-grid:    0   0   6      0.500
Naive supercell factors:     5    5    5

superc: Internal auxiliary supercell:     5 x     5 x     5  =     125
superc: Number of atoms, orbitals, and projectors:   1000  13000  16000

outcell: Unit cell vectors (Ang):
        5.516202   -0.004816   -0.004816
       -0.004816    5.516202   -0.004816
       -0.004816   -0.004816    5.516202

outcell: Cell vector modules (Ang)   :    5.516206    5.516206    5.516206
outcell: Cell angles (23,13,12) (deg):     90.1000     90.1000     90.1000
outcell: Cell volume (Ang**3)        :    167.8493
New_DM. Step:     9
Re-using DM from previous geometry...
Re-using DM without extrapolation (not allowed)
Density Matrix sparsity pattern changed.

InitMesh: MESH =    36 x    36 x    36 =       46656
InitMesh: Mesh cutoff (required, used) =   100.000   117.714 Ry

siesta: iscf   Eharris(eV)      E_KS(eV)   FreeEng(eV)   dDmax  Ef(eV)
siesta:    1    -1030.6726    -1030.8529    -1030.8529  0.0054 -4.9937
siesta:    2    -1030.6733    -1030.6715    -1030.6715  0.0047 -4.9916
siesta:    3    -1030.6721    -1030.6819    -1030.6819  0.0008 -4.9916

siesta: E_KS(eV) =            -1030.6708

siesta: Atomic forces (eV/Ang):
----------------------------------------
   Tot    0.000284    0.000289    0.000261
----------------------------------------
   Max    0.076273
   Res    0.068772    sqrt( Sum f_i^2 / 3N )
----------------------------------------
   Max    0.076273    constrained

Stress-tensor-Voigt (kbar):       -1.14       -1.14       -1.14       -3.19       -3.19       -3.19
(Free)E + p*V (eV/cell)    -1030.5515
Target enthalpy (eV/cell)    -1030.6708

siesta: Stress tensor (static) (eV/Ang**3):
        -0.000711   -0.001988   -0.001988
        -0.001988   -0.000711   -0.001988
        -0.001988   -0.001988   -0.000711

siesta: Pressure (static):          1.13855896  kBar

siesta: Stress tensor (total) (eV/Ang**3):
        -0.000711   -0.001988   -0.001988
        -0.001988   -0.000711   -0.001988
        -0.001988   -0.001988   -0.000711

siesta: Pressure (total):          1.13855896  kBar

mulliken: Mulliken Atomic and Orbital Populations:

Species: Si                  
Atom  Qatom  Qorb
               3s      3s      3py     3pz     3px     3py     3pz     3px     
               3Pdxy   3Pdyz   3Pdz2   3Pdxz   3Pdx2-y2
   1  4.000   0.639   0.572   0.246   0.246   0.246   0.519   0.519   0.519
              0.119   0.119   0.070   0.119   0.070
   2  4.000   0.642   0.570   0.241   0.241   0.241   0.522   0.522   0.522
              0.119   0.119   0.070   0.119   0.070
   3  4.000   0.638   0.572   0.246   0.246   0.246   0.519   0.519   0.519
              0.119   0.119   0.070   0.119   0.070
   4  4.000   0.642   0.570   0.241   0.241   0.241   0.523   0.523   0.523
              0.119   0.119   0.070   0.119   0.070
   5  4.000   0.638   0.572   0.246   0.246   0.246   0.519   0.519   0.519
              0.119   0.119   0.070   0.119   0.070
   6  4.000   0.642   0.570   0.241   0.241   0.241   0.523   0.523   0.523
              0.119   0.119   0.070   0.119   0.070
   7  4.000   0.638   0.572   0.246   0.246   0.246   0.519   0.519   0.519
              0.119   0.119   0.070   0.119   0.070
   8  4.000   0.642   0.570   0.241   0.241   0.241   0.523   0.523   0.523
              0.119   0.119   0.070   0.119   0.070

mulliken: Qtot =       32.000

* Maximum dynamic memory allocated =    86 MB

siesta:                 ==============================
                            Begin CG move =      9
                        ==============================

outcoor: Atomic coordinates (Ang):                          
    0.03491065    0.03491055    0.03491154   1       1  Si
    1.41337735    1.41337762    1.41337766   1       2  Si
    2.79356754    2.79356762    0.03217794   1       3  Si
    4.17201923    4.17201950    1.41098205   1       4  Si
    2.79356711    0.03217788    2.79356780   1       5  Si
    4.17201889    1.41098154    4.17201940   1       6  Si
    0.03217756    2.79356730    2.79356783   1       7  Si
    1.41098137    4.17201917    4.17201930   1       8  Si
 Kpoints in:          108 . Kpoints trimmed:          108

siesta: k-grid: Number of k-points =   108
siesta: k-grid: Cutoff (effective) =    16.567 Ang
siesta: k-grid: Supercell and displacements
siesta: k-grid:    0   6   0      0.500
siesta: k-grid:    6   0   0      0.500
siesta: k-grid:    0   0   6      0.500
Naive supercell factors:     5    5    5

superc: Internal auxiliary supercell:     5 x     5 x     5  =     125
superc: Number of atoms, orbitals, and projectors:   1000  13000  16000

outcell: Unit cell vectors (Ang):
        5.522235   -0.003741   -0.003741
       -0.003741    5.522235   -0.003741
       -0.003741   -0.003741    5.522235

outcell: Cell vector modules (Ang)   :    5.522237    5.522237    5.522237
outcell: Cell angles (23,13,12) (deg):     90.0776     90.0776     90.0776
outcell: Cell volume (Ang**3)        :    168.4007
New_DM. Step:    10
Re-using DM from previous geometry...
Re-using DM without extrapolation (not allowed)
Density Matrix sparsity pattern changed.

InitMesh: MESH =    36 x    36 x    36 =       46656
InitMesh: Mesh cutoff (required, used) =   100.000   117.457 Ry

siesta: iscf   Eharris(eV)      E_KS(eV)   FreeEng(eV)   dDmax  Ef(eV)
siesta:    1    -1030.6748    -1030.5871    -1030.5871  0.0027 -4.9856
siesta:    2    -1030.6748    -1030.6744    -1030.6744  0.0022 -4.9870
siesta:    3    -1030.6746    -1030.6699    -1030.6699  0.0004 -5.0039

siesta: E_KS(eV) =            -1030.6748

siesta: Atomic forces (eV/Ang):
----------------------------------------
   Tot    0.000649    0.000646    0.000648
----------------------------------------
   Max    0.031469
   Res    0.022603    sqrt( Sum f_i^2 / 3N )
----------------------------------------
   Max    0.031469    constrained

Stress-tensor-Voigt (kbar):        1.38        1.38        1.38       -1.11       -1.11       -1.11
(Free)E + p*V (eV/cell)    -1030.8202
Target enthalpy (eV/cell)    -1030.6748

siesta: Stress tensor (static) (eV/Ang**3):
         0.000863   -0.000695   -0.000695
        -0.000695    0.000863   -0.000695
        -0.000695   -0.000695    0.000863

siesta: Pressure (static):         -1.38268448  kBar

siesta: Stress tensor (total) (eV/Ang**3):
         0.000863   -0.000695   -0.000695
        -0.000695    0.000863   -0.000695
        -0.000695   -0.000695    0.000863

siesta: Pressure (total):         -1.38268448  kBar

mulliken: Mulliken Atomic and Orbital Populations:

Species: Si                  
Atom  Qatom  Qorb
               3s      3s      3py     3pz     3px     3py     3pz     3px     
               3Pdxy   3Pdyz   3Pdz2   3Pdxz   3Pdx2-y2
   1  4.000   0.642   0.570   0.249   0.249   0.249   0.516   0.516   0.516
              0.118   0.118   0.069   0.118   0.069
   2  4.000   0.643   0.569   0.243   0.243   0.243   0.521   0.521   0.521
              0.118   0.118   0.070   0.118   0.070
   3  4.000   0.640   0.571   0.249   0.248   0.249   0.516   0.517   0.516
              0.118   0.118   0.070   0.118   0.070
   4  4.000   0.645   0.569   0.244   0.244   0.244   0.520   0.520   0.520
              0.118   0.118   0.070   0.118   0.070
   5  4.000   0.640   0.571   0.248   0.249   0.249   0.517   0.516   0.516
              0.118   0.118   0.070   0.118   0.070
   6  4.000   0.645   0.569   0.244   0.244   0.244   0.520   0.520   0.520
              0.118   0.118   0.070   0.118   0.070
   7  4.000   0.640   0.571   0.249   0.249   0.248   0.516   0.516   0.517
              0.118   0.118   0.070   0.118   0.070
   8  4.000   0.645   0.569   0.244   0.244   0.244   0.520   0.520   0.520
              0.118   0.118   0.070   0.118   0.070

mulliken: Qtot =       32.000

* Maximum dynamic memory allocated =    86 MB

outcoor: Relaxed atomic coordinates (Ang):                  
    0.03491065    0.03491055    0.03491154   1       1  Si
    1.41337735    1.41337762    1.41337766   1       2  Si
    2.79356754    2.79356762    0.03217794   1       3  Si
    4.17201923    4.17201950    1.41098205   1       4  Si
    2.79356711    0.03217788    2.79356780   1       5  Si
    4.17201889    1.41098154    4.17201940   1       6  Si
    0.03217756    2.79356730    2.79356783   1       7  Si
    1.41098137    4.17201917    4.17201930   1       8  Si

outcell: Unit cell vectors (Ang):
        5.522235   -0.003741   -0.003741
       -0.003741    5.522235   -0.003741
       -0.003741   -0.003741    5.522235

outcell: Cell vector modules (Ang)   :    5.522237    5.522237    5.522237
outcell: Cell angles (23,13,12) (deg):     90.0776     90.0776     90.0776
outcell: Cell volume (Ang**3)        :    168.4007

coxmol: Writing XMOL coordinates into file si.xyz                                                          
Writing WFSX for selected k-points in si.selected.WFSX

writewave: Wave Functions Coefficients

     Number of k-points =        1
        Number of Spins =        1
   Number of basis orbs =      104


                                                                  ******
            k-point =        1    0.000000  0.000000  0.000000
     Spin component =        1
 Num. wavefunctions =       50
Use readwfsx utility to print wavefunction coefficients from WFSX file
Computing bands...

siesta: Band k vectors (Bohr**-1):
  ik           k
   1    0.310740    0.310740    0.310740
   2    0.298310    0.298310    0.298310
   3    0.285881    0.285881    0.285881
   4    0.273451    0.273451    0.273451
   5    0.261022    0.261022    0.261022
   6    0.248592    0.248592    0.248592
   7    0.236162    0.236162    0.236162
   8    0.223733    0.223733    0.223733
   9    0.211303    0.211303    0.211303
  10    0.198874    0.198874    0.198874
  11    0.186444    0.186444    0.186444
  12    0.174014    0.174014    0.174014
  13    0.161585    0.161585    0.161585
  14    0.149155    0.149155    0.149155
  15    0.136726    0.136726    0.136726
  16    0.124296    0.124296    0.124296
  17    0.111866    0.111866    0.111866
  18    0.099437    0.099437    0.099437
  19    0.087007    0.087007    0.087007
  20    0.074578    0.074578    0.074578
  21    0.062148    0.062148    0.062148
  22    0.049718    0.049718    0.049718
  23    0.037289    0.037289    0.037289
  24    0.024859    0.024859    0.024859
  25    0.012430    0.012430    0.012430
  26    0.000000    0.000000    0.000000
  27    0.020716    0.000000    0.000000
  28    0.041432    0.000000    0.000000
  29    0.062148    0.000000    0.000000
  30    0.082864    0.000000    0.000000
  31    0.103580    0.000000    0.000000
  32    0.124296    0.000000    0.000000
  33    0.145012    0.000000    0.000000
  34    0.165728    0.000000    0.000000
  35    0.186444    0.000000    0.000000
  36    0.207160    0.000000    0.000000
  37    0.227876    0.000000    0.000000
  38    0.248592    0.000000    0.000000
  39    0.269308    0.000000    0.000000
  40    0.290024    0.000000    0.000000
  41    0.310740    0.000000    0.000000
  42    0.331456    0.000000    0.000000
  43    0.352172    0.000000    0.000000
  44    0.372888    0.000000    0.000000
  45    0.393604    0.000000    0.000000
  46    0.414320    0.000000    0.000000
  47    0.435036    0.000000    0.000000
  48    0.455752    0.000000    0.000000
  49    0.476468    0.000000    0.000000
  50    0.497184    0.000000    0.000000
  51    0.517900    0.000000    0.000000
  52    0.538616    0.000000    0.000000
  53    0.559332    0.000000    0.000000
  54    0.580048    0.000000    0.000000
  55    0.600764    0.000000    0.000000
  56    0.621480    0.000000    0.000000
  57    0.621480    0.015537    0.015537
  58    0.621480    0.031074    0.031074
  59    0.621480    0.046611    0.046611
  60    0.621480    0.062148    0.062148
  61    0.621480    0.077685    0.077685
  62    0.621480    0.093222    0.093222
  63    0.621480    0.108759    0.108759
  64    0.621480    0.124296    0.124296
  65    0.621480    0.139833    0.139833
  66    0.621480    0.155370    0.155370
  67    0.603723    0.150931    0.150931
  68    0.585967    0.146492    0.146492
  69    0.568210    0.142053    0.142053
  70    0.550454    0.137613    0.137613
  71    0.532697    0.133174    0.133174
  72    0.514940    0.128735    0.128735
  73    0.497184    0.124296    0.124296
  74    0.479427    0.119857    0.119857
  75    0.461671    0.115418    0.115418
  76    0.443914    0.110979    0.110979
  77    0.426158    0.106539    0.106539
  78    0.408401    0.102100    0.102100
  79    0.390644    0.097661    0.097661
  80    0.372888    0.093222    0.093222
  81    0.355131    0.088783    0.088783
  82    0.337375    0.084344    0.084344
  83    0.319618    0.079905    0.079905
  84    0.301862    0.075465    0.075465
  85    0.284105    0.071026    0.071026
  86    0.266349    0.066587    0.066587
  87    0.248592    0.062148    0.062148
  88    0.230835    0.057709    0.057709
  89    0.213079    0.053270    0.053270
  90    0.195322    0.048831    0.048831
  91    0.177566    0.044391    0.044391
  92    0.159809    0.039952    0.039952
  93    0.142053    0.035513    0.035513
  94    0.124296    0.031074    0.031074
  95    0.106539    0.026635    0.026635
  96    0.088783    0.022196    0.022196
  97    0.071026    0.017757    0.017757
  98    0.053270    0.013317    0.013317
  99    0.035513    0.008878    0.008878
 100    0.017757    0.004439    0.004439
 101    0.000000    0.000000    0.000000

siesta: Band energies (eV):
  ik is    eps
   1  1 -14.86 -14.86 -14.86 -14.85 -12.19 -12.19 -12.19 -12.18  -6.61  -6.61
         -6.61  -6.60  -6.60  -6.59  -6.59  -6.59  -4.02  -3.97  -3.97  -3.97
         -1.94  -1.94  -1.93  -1.93  -1.93  -1.93  -1.92  -1.92   3.49   3.51
          3.51   3.51   5.37   5.37   5.37   5.42   5.42   5.57   5.57   5.57
          5.89   5.95   5.96   5.96   6.04   6.04   6.04   6.24   6.24   6.29
          6.29   6.29   8.35   8.35   8.35   8.40  16.40  16.40  16.40  16.42
         17.33  17.33  17.35  17.35  17.35  17.38  17.38  17.38  19.35  19.35
         19.36  19.37  19.37  19.37  19.39  19.39  19.80  19.80  19.80  20.08
         28.81  28.81  28.81  28.89  28.89  28.97  28.97  28.97  65.05  65.25
         65.25  65.28  76.90  76.90  76.91  77.97  77.99  77.99  78.58  78.58
        114.27 116.89 116.89 116.91
   2  1 -14.86 -14.86 -14.86 -14.84 -12.20 -12.19 -12.19 -12.19  -6.60  -6.60
         -6.59  -6.59  -6.59  -6.59  -6.58  -6.58  -4.02  -3.99  -3.99  -3.99
         -1.94  -1.94  -1.94  -1.94  -1.94  -1.92  -1.92  -1.92   3.50   3.52
          3.52   3.52   5.56   5.56   5.57   5.57   5.57   5.57   5.58   5.58
          5.91   5.93   5.93   5.93   6.03   6.03   6.03   6.08   6.08   6.10
          6.10   6.10   8.34   8.34   8.34   8.38  16.41  16.41  16.41  16.45
         17.36  17.36  17.36  17.38  17.38  17.40  17.40  17.40  19.36  19.36
         19.37  19.37  19.37  19.38  19.38  19.38  19.91  19.91  19.91  20.04
         28.84  28.84  28.84  28.88  28.88  28.96  28.96  28.96  65.31  65.33
         65.33  65.50  78.54  78.54  78.89  78.97  78.97  79.53  79.55  79.55
        115.20 116.63 116.63 116.65
   3  1 -14.87 -14.85 -14.85 -14.85 -12.18 -12.18 -12.18 -12.14  -6.66  -6.66
         -6.66  -6.60  -6.60  -6.60  -6.59  -6.59  -4.01  -3.92  -3.92  -3.92
         -1.94  -1.94  -1.93  -1.93  -1.93  -1.91  -1.91  -1.91   3.48   3.49
          3.49   3.50   5.14   5.14   5.14   5.23   5.23   5.55   5.55   5.55
          5.83   5.98   5.98   5.98   6.06   6.06   6.07   6.44   6.44   6.55
          6.55   6.55   8.36   8.36   8.36   8.45  16.37  16.39  16.39  16.39
         17.26  17.26  17.32  17.32  17.33  17.33  17.33  17.33  19.33  19.33
         19.33  19.35  19.35  19.35  19.44  19.44  19.60  19.60  19.60  20.17
         28.75  28.75  28.75  28.92  28.92  28.99  28.99  28.99  64.23  64.94
         64.94  64.96  72.89  72.89  72.90  76.21  76.24  76.24  78.45  78.45
        112.48 116.23 116.23 116.25
   4  1 -14.95 -14.85 -14.85 -14.84 -12.16 -12.16 -12.16 -12.03  -6.80  -6.80
         -6.80  -6.64  -6.64  -6.64  -6.58  -6.58  -4.00  -3.78  -3.78  -3.78
         -1.96  -1.96  -1.96  -1.93  -1.93  -1.84  -1.84  -1.84   3.40   3.40
          3.40   3.47   4.72   4.72   4.72   4.84   4.84   5.52   5.52   5.52
          5.66   6.04   6.04   6.04   6.13   6.13   6.13   6.89   6.89   7.11
          7.11   7.11   8.42   8.42   8.42   8.59  16.21  16.33  16.33  16.33
         17.02  17.02  17.15  17.15  17.15  17.29  17.29  17.29  18.92  18.92
         18.92  19.24  19.24  19.24  19.40  19.40  19.40  19.59  19.59  20.44
         28.54  28.54  28.54  28.99  28.99  29.10  29.10  29.11  60.98  60.99
         60.99  61.45  67.75  67.75  67.76  71.27  71.30  71.30  78.08  78.08
        107.43 109.78 109.78 109.79
   5  1 -15.05 -14.83 -14.83 -14.83 -12.13 -12.13 -12.13 -11.87  -6.99  -6.99
         -6.99  -6.70  -6.70  -6.70  -6.56  -6.56  -3.98  -3.61  -3.60  -3.60
         -1.99  -1.99  -1.99  -1.91  -1.91  -1.73  -1.73  -1.73   3.21   3.21
          3.21   3.42   4.41   4.41   4.41   4.44   4.44   5.44   5.47   5.47
          5.47   6.13   6.13   6.13   6.22   6.22   6.22   7.36   7.36   7.65
          7.65   7.65   8.54   8.54   8.55   8.74  16.02  16.15  16.15  16.15
         16.70  16.70  16.88  16.88  16.89  17.24  17.24  17.24  18.31  18.32
         18.32  19.10  19.10  19.10  19.39  19.39  19.39  19.77  19.77  20.81
         28.21  28.21  28.21  29.11  29.11  29.33  29.33  29.34  53.86  53.86
         53.86  57.46  65.98  66.00  66.00  67.28  67.28  67.29  77.50  77.50
         99.63  99.63  99.63 101.91
   6  1 -15.18 -14.82 -14.82 -14.81 -12.09 -12.09 -12.09 -11.67  -7.21  -7.21
         -7.21  -6.77  -6.77  -6.77  -6.54  -6.54  -3.95  -3.42  -3.42  -3.42
         -1.99  -1.99  -1.99  -1.90  -1.90  -1.58  -1.58  -1.58   2.87   2.88
          2.88   3.35   4.07   4.07   4.27   4.27   4.27   5.22   5.43   5.43
          5.43   6.24   6.24   6.24   6.32   6.32   6.32   7.85   7.85   8.10
          8.11   8.11   8.80   8.80   8.80   8.88  15.84  15.84  15.84  15.86
         16.32  16.32  16.55  16.55  16.56  17.20  17.20  17.20  17.90  17.90
         17.90  18.91  18.91  18.91  19.40  19.40  19.40  19.95  19.95  21.24
         27.76  27.76  27.76  29.25  29.25  29.69  29.69  29.69  47.72  47.72
         47.72  52.95  61.53  61.55  61.55  67.27  67.27  67.28  76.71  76.71
         90.82  90.82  90.82  96.96
   7  1 -15.31 -14.79 -14.79 -14.79 -12.04 -12.04 -12.04 -11.43  -7.45  -7.45
         -7.45  -6.85  -6.85  -6.85  -6.51  -6.51  -3.92  -3.29  -3.29  -3.29
         -1.93  -1.93  -1.93  -1.88  -1.88  -1.40  -1.40  -1.40   2.45   2.45
          2.45   3.25   3.71   3.71   4.23   4.23   4.23   5.03   5.39   5.39
          5.39   6.37   6.37   6.37   6.44   6.44   6.44   8.33   8.33   8.37
          8.38   8.38   8.96   9.27   9.27   9.27  15.45  15.45  15.45  15.75
         15.92  15.92  16.18  16.18  16.18  17.08  17.08  17.08  17.75  17.75
         17.75  18.67  18.67  18.67  19.44  19.44  19.44  20.13  20.13  21.72
         27.21  27.21  27.21  29.42  29.42  30.16  30.16  30.16  42.74  42.74
         42.75  48.54  58.31  58.32  58.32  66.97  66.97  66.97  75.75  75.75
         85.17  85.18  85.18  92.74
   8  1 -15.46 -14.76 -14.76 -14.76 -11.98 -11.98 -11.98 -11.17  -7.69  -7.69
         -7.69  -6.95  -6.95  -6.95  -6.48  -6.48  -3.88  -3.23  -3.22  -3.22
         -1.86  -1.86  -1.78  -1.78  -1.78  -1.18  -1.18  -1.18   1.98   1.98
          1.98   3.09   3.38   3.38   4.26   4.26   4.26   4.89   5.35   5.36
          5.36   6.50   6.50   6.50   6.55   6.55   6.55   8.55   8.55   8.55
          8.82   8.82   8.96   9.86   9.86   9.86  15.03  15.03  15.03  15.52
         15.52  15.70  15.77  15.77  15.77  16.90  16.90  16.90  17.80  17.80
         17.80  18.40  18.40  18.40  19.51  19.51  19.51  20.29  20.29  22.24
         26.59  26.59  26.59  29.61  29.61  30.71  30.71  30.71  38.78  38.78
         38.78  44.66  56.25  56.26  56.26  66.15  66.15  66.16  74.70  74.70
         82.33  82.33  82.33  88.99
   9  1 -15.61 -14.73 -14.73 -14.73 -11.92 -11.92 -11.92 -10.88  -7.93  -7.93
         -7.93  -7.05  -7.05  -7.05  -6.43  -6.43  -3.83  -3.24  -3.24  -3.24
         -1.84  -1.84  -1.53  -1.53  -1.53  -0.94  -0.94  -0.94   1.49   1.49
          1.49   2.88   3.07   3.07   4.32   4.32   4.32   4.81   5.33   5.33
          5.33   6.63   6.63   6.63   6.67   6.67   6.67   8.71   8.71   8.71
          8.88   9.28   9.28  10.48  10.48  10.48  14.62  14.62  14.62  15.12
         15.12  15.35  15.35  15.36  15.72  16.72  16.72  16.72  17.93  17.93
         17.93  18.09  18.09  18.09  19.62  19.62  19.62  20.42  20.42  22.82
         25.92  25.92  25.92  29.80  29.80  31.29  31.29  31.29  35.67  35.67
         35.68  41.46  55.15  55.15  55.15  64.91  64.91  64.91  73.65  73.65
         81.25  81.25  81.25  85.47
  10  1 -15.75 -14.69 -14.69 -14.69 -11.86 -11.86 -11.86 -10.58  -8.15  -8.15
         -8.15  -7.15  -7.15  -7.15  -6.39  -6.39  -3.78  -3.31  -3.31  -3.31
         -1.83  -1.83  -1.22  -1.22  -1.22  -0.68  -0.68  -0.68   1.01   1.01
          1.01   2.62   2.79   2.79   4.40   4.40   4.40   4.80   5.32   5.32
          5.32   6.75   6.75   6.75   6.78   6.78   6.78   8.70   8.88   8.88
          8.88   9.70   9.70  11.10  11.10  11.10  14.22  14.22  14.22  14.78
         14.78  14.93  14.93  14.94  15.80  16.57  16.57  16.57  17.74  17.74
         17.74  18.08  18.08  18.08  19.78  19.78  19.78  20.53  20.53  23.44
         25.24  25.24  25.24  30.01  30.01  31.63  31.63  31.63  33.44  33.44
         33.45  38.93  54.77  54.77  54.77  63.35  63.35  63.36  72.75  72.75
         80.97  80.98  80.98  81.98
  11  1 -15.90 -14.64 -14.64 -14.64 -11.80 -11.80 -11.80 -10.26  -8.37  -8.37
         -8.37  -7.26  -7.26  -7.26  -6.33  -6.33  -3.72  -3.42  -3.41  -3.41
         -1.82  -1.82  -0.87  -0.87  -0.87  -0.39  -0.39  -0.39   0.52   0.52
          0.52   2.33   2.55   2.55   4.49   4.49   4.49   4.83   5.31   5.31
          5.31   6.85   6.85   6.85   6.90   6.90   6.90   8.44   9.07   9.07
          9.07  10.03  10.03  11.70  11.70  11.70  13.80  13.80  13.81  14.52
         14.52  14.52  14.52  14.52  15.92  16.47  16.47  16.47  17.38  17.38
         17.38  18.22  18.22  18.22  19.97  19.97  19.97  20.63  20.63  24.10
         24.56  24.56  24.56  30.23  30.23  30.69  30.69  30.69  32.94  32.94
         32.94  37.02  54.92  54.92  54.92  61.45  61.45  61.46  72.14  72.14
         78.47  80.86  80.86  80.86
  12  1 -16.03 -14.59 -14.59 -14.59 -11.74 -11.74 -11.74  -9.92  -8.55  -8.55
         -8.55  -7.36  -7.36  -7.36  -6.27  -6.27  -3.65  -3.53  -3.53  -3.53
         -1.83  -1.83  -0.48  -0.48  -0.48  -0.08  -0.08  -0.08   0.03   0.04
          0.04   2.02   2.34   2.34   4.59   4.59   4.59   4.89   5.31   5.31
          5.31   6.94   6.94   6.94   7.00   7.00   7.00   8.13   9.30   9.30
          9.30  10.23  10.23  12.26  12.26  12.26  13.39  13.39  13.39  14.10
         14.10  14.10  14.42  14.42  16.06  16.42  16.42  16.42  17.00  17.00
         17.00  18.35  18.35  18.35  20.19  20.19  20.19  20.70  20.70  23.89
         23.89  23.89  24.71  29.20  29.20  29.20  30.46  30.46  33.23  33.23
         33.23  35.69  55.46  55.46  55.46  59.09  59.09  59.10  71.95  71.95
         74.97  80.57  80.57  80.57
  13  1 -16.17 -14.53 -14.53 -14.53 -11.71 -11.71 -11.71  -9.58  -8.71  -8.71
         -8.71  -7.46  -7.46  -7.46  -6.21  -6.21  -3.65  -3.65  -3.65  -3.58
         -1.85  -1.85  -0.44  -0.44  -0.44  -0.08  -0.08  -0.08   0.24   0.24
          0.24   1.70   2.17   2.17   4.69   4.69   4.69   4.98   5.32   5.32
          5.32   7.01   7.01   7.01   7.10   7.10   7.10   7.78   9.58   9.58
          9.58  10.25  10.25  12.65  12.65  12.65  13.11  13.11  13.11  13.69
         13.69  13.69  14.50  14.50  16.23  16.42  16.42  16.42  16.62  16.62
         16.62  18.45  18.45  18.45  20.44  20.44  20.44  20.75  20.75  23.24
         23.24  23.24  25.15  27.89  27.89  27.89  30.73  30.73  33.43  33.43
         33.43  34.97  56.22  56.22  56.22  56.27  56.28  56.28  71.56  72.33
         72.33  79.99  79.99  79.99
  14  1 -16.29 -14.46 -14.46 -14.46 -11.69 -11.69 -11.69  -9.22  -8.83  -8.83
         -8.83  -7.56  -7.56  -7.56  -6.14  -6.14  -3.77  -3.77  -3.77  -3.50
         -1.88  -1.88  -0.91  -0.90  -0.90   0.33   0.33   0.33   0.58   0.58
          0.58   1.36   2.05   2.05   4.78   4.78   4.78   5.07   5.34   5.34
          5.34   7.07   7.07   7.07   7.18   7.18   7.18   7.42   9.92   9.92
          9.92  10.11  10.11  12.38  12.38  12.38  13.26  13.26  13.26  13.45
         13.45  13.45  14.77  14.77  16.26  16.26  16.26  16.41  16.46  16.46
         16.46  18.52  18.52  18.52  20.69  20.69  20.69  20.79  20.79  22.61
         22.61  22.61  25.23  26.79  26.79  26.80  31.02  31.02  33.43  33.43
         33.43  34.88  52.95  52.95  52.95  57.28  57.28  57.28  68.43  73.40
         73.40  79.12  79.12  79.12
  15  1 -16.41 -14.39 -14.39 -14.39 -11.70 -11.70 -11.70  -8.91  -8.91  -8.91
         -8.85  -7.65  -7.65  -7.65  -6.07  -6.07  -3.89  -3.89  -3.89  -3.42
         -1.94  -1.94  -1.36  -1.36  -1.36   0.76   0.76   0.76   0.94   0.94
          0.94   1.02   1.96   1.96   4.87   4.87   4.87   5.15   5.37   5.37
          5.37   7.07   7.10   7.10   7.10   7.25   7.25   7.25   9.84   9.84
         10.30  10.30  10.30  11.94  11.94  11.94  12.82  12.82  12.82  13.93
         13.93  13.93  15.18  15.18  15.93  15.93  15.93  16.53  16.53  16.53
         16.61  18.56  18.56  18.56  20.80  20.80  20.94  20.94  20.94  22.01
         22.01  22.01  24.89  25.87  25.87  25.87  31.35  31.35  33.22  33.22
         33.22  35.33  49.55  49.55  49.55  58.40  58.40  58.40  65.78  75.31
         75.31  78.04  78.04  78.04
  16  1 -16.52 -14.30 -14.30 -14.30 -11.73 -11.73 -11.73  -8.95  -8.95  -8.95
         -8.48  -7.74  -7.74  -7.74  -5.99  -5.99  -4.00  -4.00  -4.00  -3.33
         -2.01  -2.01  -1.79  -1.79  -1.79   0.66   1.18   1.18   1.18   1.30
          1.30   1.30   1.92   1.92   4.96   4.96   4.96   5.19   5.41   5.41
          5.41   6.77   7.12   7.12   7.12   7.30   7.30   7.31   9.49   9.49
         10.70  10.70  10.70  11.51  11.51  11.51  12.36  12.36  12.36  14.39
         14.39  14.39  15.64  15.64  15.64  15.67  15.67  16.62  16.62  16.62
         16.83  18.57  18.57  18.57  20.80  20.80  21.17  21.17  21.17  21.44
         21.44  21.44  24.20  25.10  25.10  25.10  31.71  31.71  32.82  32.82
         32.82  36.06  46.31  46.31  46.31  59.59  59.59  59.59  63.90  76.83
         76.83  76.83  78.23  78.23
  17  1 -16.61 -14.21 -14.21 -14.21 -11.80 -11.80 -11.80  -8.94  -8.94  -8.94
         -8.10  -7.82  -7.82  -7.82  -5.91  -5.91  -4.11  -4.11  -4.11  -3.24
         -2.21  -2.21  -2.21  -2.10  -2.10   0.30   1.61   1.61   1.61   1.68
          1.68   1.68   1.92   1.92   5.05   5.05   5.05   5.16   5.45   5.45
          5.45   6.56   7.13   7.13   7.13   7.34   7.34   7.34   9.11   9.11
         10.80  10.80  10.80  11.41  11.41  11.41  11.87  11.87  11.87  14.82
         14.82  14.82  15.42  15.42  15.42  16.20  16.20  16.73  16.73  16.73
         17.06  18.56  18.56  18.56  20.79  20.79  20.89  20.89  20.89  21.35
         21.36  21.36  23.31  24.45  24.45  24.45  32.10  32.10  32.30  32.30
         32.30  36.67  43.45  43.45  43.45  60.80  60.81  60.81  63.08  75.58
         75.58  75.58  82.31  82.31
  18  1 -16.70 -14.12 -14.12 -14.12 -11.90 -11.90 -11.90  -8.89  -8.89  -8.89
         -7.89  -7.89  -7.89  -7.72  -5.83  -5.83  -4.20  -4.20  -4.20  -3.15
         -2.60  -2.60  -2.60  -2.21  -2.21  -0.06   1.96   1.96   2.04   2.04
          2.04   2.06   2.06   2.06   5.04   5.13   5.13   5.13   5.50   5.50
[...]
         76.06  86.74  93.96  95.39
  93  1 -16.05 -15.40 -14.29 -13.95 -12.12 -11.74 -10.34  -9.47  -9.34  -9.17
         -8.18  -7.94  -7.75  -7.50  -7.26  -6.37  -3.20  -3.18  -2.77  -2.11
         -2.01  -1.58  -1.58  -0.84  -0.83  -0.61  -0.37  -0.28   0.62   0.70
          1.25   2.04   2.08   2.08   2.70   3.55   4.02   4.03   4.66   5.67
          5.80   5.83   7.72   7.82   8.33   8.45   9.04   9.38   9.48  10.24
         10.57  11.02  11.10  11.34  11.46  11.77  12.09  12.41  13.03  13.33
         14.02  14.23  14.47  14.50  14.69  15.49  15.84  16.14  16.40  17.00
         17.62  17.75  18.59  18.78  19.39  20.61  21.68  22.25  22.64  23.08
         23.26  23.59  24.59  24.92  26.07  26.31  31.48  35.97  37.34  39.56
         41.22  50.14  51.83  53.61  55.12  63.98  64.27  64.52  66.73  70.81
         75.95  86.70  93.81  95.38
  94  1 -15.85 -15.24 -14.36 -14.36 -12.00 -12.00 -10.98 -10.19  -8.77  -8.77
         -7.79  -7.48  -7.48  -7.18  -6.69  -6.67  -3.32  -3.20  -2.96  -2.96
         -2.08  -1.42  -1.42  -1.28  -1.19  -0.47  -0.23   0.49   0.49   0.69
          0.95   0.95   2.89   2.89   3.28   3.40   4.98   5.10   5.15   5.47
          5.48   5.48   6.48   6.48   7.27   8.35   8.91   9.14   9.14   9.22
          9.48   9.48  11.11  11.45  11.45  11.81  13.14  13.34  13.51  13.51
         13.59  14.57  14.99  15.00  16.05  16.05  16.32  16.41  17.20  17.34
         17.34  17.90  17.90  19.08  19.22  19.22  20.70  21.84  21.95  23.69
         24.43  24.43  25.07  26.92  27.51  27.51  31.73  32.72  35.10  35.10
         40.90  48.87  54.42  54.42  57.49  59.79  63.33  65.36  65.36  68.03
         83.82  87.75  87.75  94.08
  95  1 -15.46 -14.94 -14.94 -14.59 -12.02 -11.63 -11.63 -11.01  -8.32  -7.91
         -7.91  -7.22  -6.96  -6.92  -6.92  -6.39  -3.33  -3.19  -2.86  -2.86
         -2.07  -2.07  -1.77  -1.72  -1.30  -0.94  -0.82  -0.82   1.46   1.46
          2.19   2.41   2.62   3.21   3.58   4.04   4.04   4.41   4.41   4.76
          5.22   7.03   7.03   7.15   7.15   7.81   8.13   8.62   8.91   8.91
          8.97   9.34   9.38  10.10  10.56  10.56  13.85  14.08  14.08  15.06
         15.06  15.10  15.48  15.63  15.76  15.97  16.39  16.39  17.56  18.34
         18.34  18.39  18.89  18.89  19.33  19.62  20.44  20.44  21.06  21.56
         26.77  26.90  26.90  28.30  28.57  32.08  32.08  34.14  38.66  39.55
         39.56  45.80  54.73  54.74  58.15  58.88  60.55  73.08  73.09  78.46
         84.17  84.17  84.91 103.58
  96  1 -15.47 -14.93 -14.92 -14.59 -12.02 -11.64 -11.64 -11.01  -8.32  -7.92
         -7.91  -7.21  -6.96  -6.93  -6.92  -6.38  -3.31  -3.18  -2.88  -2.86
         -2.09  -2.08  -1.76  -1.72  -1.31  -0.93  -0.83  -0.82   1.42   1.44
          2.20   2.42   2.57   3.24   3.60   4.05   4.05   4.42   4.42   4.77
          5.20   7.04   7.05   7.17   7.20   7.82   8.10   8.64   8.92   8.94
          8.96   9.31   9.34  10.08  10.51  10.54  13.83  14.07  14.10  15.05
         15.07  15.10  15.46  15.60  15.77  15.97  16.41  16.43  17.58  18.32
         18.35  18.38  18.90  18.95  19.35  19.64  20.43  20.44  21.09  21.48
         26.83  26.89  26.94  28.30  28.58  32.10  32.10  34.20  38.67  39.55
         39.58  45.89  54.56  54.66  58.37  59.03  60.88  73.19  73.24  78.37
         84.14  84.16  84.84 104.56
  97  1 -15.46 -14.94 -14.94 -14.58 -12.03 -11.63 -11.63 -11.01  -8.32  -7.90
         -7.90  -7.21  -6.97  -6.92  -6.92  -6.38  -3.32  -3.20  -2.85  -2.85
         -2.08  -2.08  -1.78  -1.71  -1.32  -0.95  -0.82  -0.82   1.42   1.43
          2.17   2.40   2.60   3.23   3.60   4.05   4.05   4.43   4.43   4.78
          5.25   7.04   7.04   7.16   7.16   7.81   8.12   8.64   8.93   8.93
          8.99   9.30   9.35  10.06  10.50  10.50  13.82  14.06  14.06  15.05
         15.05  15.14  15.45  15.62  15.78  16.00  16.44  16.44  17.60  18.34
         18.34  18.37  18.89  18.89  19.34  19.66  20.46  20.46  21.08  21.52
         26.77  26.93  26.93  28.33  28.58  32.20  32.21  34.15  38.65  39.59
         39.59  45.72  54.90  54.91  58.11  59.00  60.77  73.21  73.22  78.45
         84.39  84.39  84.75 104.00
  98  1 -15.63 -15.03 -15.03 -14.51 -11.63 -11.00 -11.00 -10.22  -9.27  -8.79
         -8.79  -8.20  -7.09  -7.01  -7.01  -6.32  -3.31  -2.69  -2.42  -2.42
         -1.73  -1.73  -1.41  -1.16  -0.12  -0.12  -0.10   0.06   0.44   0.44
          0.69   1.23   1.73   2.15   2.49   2.75   2.75   4.22   4.22   5.38
          5.77   7.62   7.62   8.18   8.73   8.73   9.37   9.67   9.89  10.02
         10.02  10.68  11.09  11.69  11.69  12.01  12.72  12.83  12.83  12.86
         13.44  13.75  13.75  14.39  14.89  15.13  15.13  15.53  17.39  18.14
         18.14  19.18  19.80  19.91  19.91  20.38  21.50  21.50  21.72  22.29
         25.53  25.56  25.95  25.95  27.57  35.92  35.93  40.26  42.72  42.72
         48.51  51.97  51.97  53.18  57.74  59.39  60.56  68.81  68.82  78.48
         79.07  81.17  81.17  97.21
  99  1 -15.63 -15.03 -15.03 -14.52 -11.62 -11.00 -11.00 -10.21  -9.27  -8.80
         -8.80  -8.21  -7.08  -7.01  -7.01  -6.32  -3.30  -2.70  -2.42  -2.42
         -1.74  -1.74  -1.40  -1.17  -0.10  -0.08  -0.08   0.09   0.45   0.45
          0.70   1.23   1.70   2.14   2.49   2.73   2.73   4.22   4.22   5.36
          5.76   7.62   7.62   8.18   8.72   8.72   9.37   9.68   9.91   9.98
          9.98  10.69  11.07  11.71  11.71  12.03  12.70  12.88  12.90  12.90
         13.48  13.74  13.74  14.40  14.87  15.09  15.09  15.52  17.39  18.13
         18.13  19.16  19.78  19.91  19.91  20.37  21.48  21.48  21.71  22.31
         25.53  25.56  25.94  25.94  27.56  35.90  35.90  40.25  42.49  42.49
         48.48  52.10  52.10  53.12  57.64  59.36  60.65  68.59  68.59  78.57
         79.07  81.07  81.07  97.16
 100  1 -15.46 -14.94 -14.94 -14.59 -12.02 -11.63 -11.63 -11.01  -8.32  -7.91
         -7.91  -7.22  -6.96  -6.92  -6.92  -6.39  -3.33  -3.19  -2.86  -2.86
         -2.07  -2.07  -1.77  -1.72  -1.30  -0.94  -0.82  -0.82   1.46   1.46
          2.19   2.41   2.62   3.21   3.58   4.04   4.04   4.41   4.41   4.76
          5.22   7.03   7.03   7.15   7.15   7.81   8.13   8.62   8.91   8.91
          8.97   9.34   9.38  10.10  10.56  10.56  13.85  14.08  14.08  15.06
         15.06  15.10  15.48  15.63  15.76  15.97  16.39  16.39  17.56  18.34
         18.34  18.39  18.89  18.89  19.33  19.62  20.44  20.44  21.06  21.56
         26.77  26.90  26.90  28.30  28.57  32.08  32.08  34.14  38.66  39.55
         39.56  45.80  54.73  54.74  58.15  58.88  60.55  73.08  73.09  78.46
         84.17  84.17  84.91 103.58
 101  1 -15.15 -14.82 -14.82 -14.82 -12.10 -12.10 -12.10 -11.72  -7.16  -7.16
         -7.16  -6.75  -6.75  -6.75  -6.55  -6.55  -3.96  -3.46  -3.46  -3.46
         -1.99  -1.99  -1.99  -1.90  -1.90  -1.61  -1.61  -1.61   2.95   2.96
          2.96   3.37   4.15   4.15   4.29   4.29   4.29   5.27   5.43   5.44
          5.44   6.21   6.21   6.21   6.30   6.30   6.30   7.74   7.74   8.02
          8.02   8.02   8.73   8.73   8.73   8.86  15.89  15.92  15.92  15.92
         16.41  16.41  16.63  16.63  16.63  17.21  17.21  17.21  17.96  17.96
         17.96  18.95  18.95  18.95  19.39  19.39  19.39  19.92  19.92  21.15
         27.86  27.86  27.86  29.22  29.22  29.61  29.61  29.61  48.91  48.91
         48.92  53.91  62.37  62.39  62.39  67.29  67.29  67.30  76.89  76.89
         92.43  92.43  92.43  97.94
 102  1 -15.16 -14.82 -14.82 -14.80 -12.11 -12.10 -12.10 -11.71  -7.17  -7.16
         -7.16  -6.76  -6.75  -6.75  -6.54  -6.53  -3.93  -3.48  -3.46  -3.46
         -2.02  -2.01  -2.01  -1.90  -1.88  -1.61  -1.60  -1.60   2.92   2.92
          2.93   3.38   4.13   4.16   4.28   4.29   4.29   5.27   5.46   5.46
          5.46   6.23   6.24   6.24   6.32   6.33   6.33   7.71   7.74   8.00
          8.01   8.02   8.70   8.70   8.73   8.82  15.85  15.91  15.92  15.96
         16.39  16.42  16.60  16.60  16.62  17.23  17.25  17.25  17.98  17.98
         18.04  18.94  18.96  18.96  19.37  19.39  19.39  19.94  19.94  21.05
         27.89  27.94  27.94  29.19  29.30  29.57  29.58  29.58  48.78  48.91
         48.92  53.88  62.14  62.67  62.67  67.11  67.11  67.29  77.31  77.94
         92.60  92.62  92.70  98.27
 103  1 -15.47 -14.93 -14.92 -14.59 -12.02 -11.64 -11.64 -11.01  -8.32  -7.92
         -7.91  -7.21  -6.96  -6.93  -6.92  -6.38  -3.31  -3.18  -2.88  -2.86
         -2.09  -2.08  -1.76  -1.72  -1.31  -0.93  -0.83  -0.82   1.42   1.44
          2.20   2.42   2.57   3.24   3.60   4.05   4.05   4.42   4.42   4.77
          5.20   7.04   7.05   7.17   7.20   7.82   8.10   8.64   8.92   8.94
          8.96   9.31   9.34  10.08  10.51  10.54  13.83  14.07  14.10  15.05
         15.07  15.10  15.46  15.60  15.77  15.97  16.41  16.43  17.58  18.32
         18.35  18.38  18.90  18.95  19.35  19.64  20.43  20.44  21.09  21.48
         26.83  26.89  26.94  28.30  28.58  32.10  32.10  34.20  38.67  39.55
         39.58  45.89  54.56  54.66  58.37  59.03  60.88  73.19  73.24  78.37
         84.14  84.16  84.84 104.56
 104  1 -15.64 -15.03 -15.02 -14.53 -11.62 -11.01 -11.01 -10.21  -9.27  -8.80
         -8.79  -8.21  -7.08  -7.02  -7.01  -6.32  -3.29  -2.68  -2.44  -2.43
         -1.74  -1.74  -1.39  -1.16  -0.12  -0.11  -0.09   0.09   0.43   0.44
          0.71   1.25   1.73   2.16   2.45   2.72   2.73   4.26   4.26   5.35
          5.74   7.65   7.66   8.17   8.72   8.73   9.34   9.67   9.88   9.99
         10.01  10.68  11.08  11.71  11.72  12.01  12.70  12.85  12.86  12.88
         13.46  13.75  13.76  14.38  14.89  15.10  15.12  15.51  17.35  18.13
         18.16  19.20  19.77  19.91  19.93  20.40  21.47  21.48  21.75  22.27
         25.55  25.58  25.93  25.95  27.57  35.90  35.91  40.27  42.50  42.55
         48.77  51.75  51.88  53.17  57.94  59.59  60.50  68.68  68.77  78.52
         79.01  81.08  81.18  97.18
 105  1 -15.64 -15.03 -15.02 -14.53 -11.62 -11.01 -11.01 -10.21  -9.27  -8.80
         -8.79  -8.21  -7.08  -7.02  -7.01  -6.32  -3.29  -2.68  -2.44  -2.43
         -1.74  -1.74  -1.39  -1.16  -0.12  -0.11  -0.09   0.09   0.43   0.44
          0.71   1.25   1.73   2.16   2.45   2.72   2.73   4.26   4.26   5.35
          5.74   7.65   7.66   8.17   8.72   8.73   9.34   9.67   9.88   9.99
         10.01  10.68  11.08  11.71  11.72  12.01  12.70  12.85  12.86  12.88
         13.46  13.75  13.76  14.38  14.89  15.10  15.12  15.51  17.35  18.13
         18.16  19.20  19.77  19.91  19.93  20.40  21.47  21.48  21.75  22.27
         25.55  25.58  25.93  25.95  27.57  35.90  35.91  40.27  42.50  42.55
         48.77  51.75  51.88  53.17  57.94  59.59  60.50  68.68  68.77  78.52
         79.01  81.08  81.18  97.18
 106  1 -15.47 -14.93 -14.92 -14.59 -12.02 -11.64 -11.64 -11.01  -8.32  -7.92
         -7.91  -7.21  -6.96  -6.93  -6.92  -6.38  -3.31  -3.18  -2.88  -2.86
         -2.09  -2.08  -1.76  -1.72  -1.31  -0.93  -0.83  -0.82   1.42   1.44
          2.20   2.42   2.57   3.24   3.60   4.05   4.05   4.42   4.42   4.77
          5.20   7.04   7.05   7.17   7.20   7.82   8.10   8.64   8.92   8.94
          8.96   9.31   9.34  10.08  10.51  10.54  13.83  14.07  14.10  15.05
         15.07  15.10  15.46  15.60  15.77  15.97  16.41  16.43  17.58  18.32
         18.35  18.38  18.90  18.95  19.35  19.64  20.43  20.44  21.09  21.48
         26.83  26.89  26.94  28.30  28.58  32.10  32.10  34.20  38.67  39.55
         39.58  45.89  54.56  54.66  58.37  59.03  60.88  73.19  73.24  78.37
         84.14  84.16  84.84 104.56
 107  1 -15.16 -14.82 -14.82 -14.80 -12.11 -12.10 -12.10 -11.71  -7.17  -7.16
         -7.16  -6.76  -6.75  -6.75  -6.54  -6.53  -3.93  -3.48  -3.46  -3.46
         -2.02  -2.01  -2.01  -1.90  -1.88  -1.61  -1.60  -1.60   2.92   2.92
          2.93   3.38   4.13   4.16   4.28   4.29   4.29   5.27   5.46   5.46
          5.46   6.23   6.24   6.24   6.32   6.33   6.33   7.71   7.74   8.00
          8.01   8.02   8.70   8.70   8.73   8.82  15.85  15.91  15.92  15.96
         16.39  16.42  16.60  16.60  16.62  17.23  17.25  17.25  17.98  17.98
         18.04  18.94  18.96  18.96  19.37  19.39  19.39  19.94  19.94  21.05
         27.89  27.94  27.94  29.19  29.30  29.57  29.58  29.58  48.78  48.91
         48.92  53.88  62.14  62.67  62.67  67.11  67.11  67.29  77.31  77.94
         92.60  92.62  92.70  98.27
 108  1 -15.16 -14.82 -14.82 -14.80 -12.11 -12.10 -12.10 -11.71  -7.17  -7.16
         -7.16  -6.76  -6.75  -6.75  -6.54  -6.53  -3.93  -3.48  -3.46  -3.46
         -2.02  -2.01  -2.01  -1.90  -1.88  -1.61  -1.60  -1.60   2.92   2.92
          2.93   3.38   4.13   4.16   4.28   4.29   4.29   5.27   5.46   5.46
          5.46   6.23   6.24   6.24   6.32   6.33   6.33   7.71   7.74   8.00
          8.01   8.02   8.70   8.70   8.73   8.82  15.85  15.91  15.92  15.96
         16.39  16.42  16.60  16.60  16.62  17.23  17.25  17.25  17.98  17.98
         18.04  18.94  18.96  18.96  19.37  19.39  19.39  19.94  19.94  21.05
         27.89  27.94  27.94  29.19  29.30  29.57  29.58  29.58  48.78  48.91
         48.92  53.88  62.14  62.67  62.67  67.11  67.11  67.29  77.31  77.94
         92.60  92.62  92.70  98.27
siesta: Fermi energy =      -5.003869 eV

siesta: Program's energy decomposition (eV):
siesta: Ebs     =      -331.447126
siesta: Eions   =      1510.441798
siesta: Ena     =       471.418126
siesta: Ekin    =       319.080231
siesta: Enl     =       127.036342
siesta: DEna    =         6.670995
siesta: DUscf   =         1.517367
siesta: DUext   =         0.000000
siesta: Exc     =      -445.956093
siesta: eta*DQ  =         0.000000
siesta: Emadel  =         0.000000
siesta: Emeta   =         0.000000
siesta: Emolmec =         0.000000
siesta: Ekinion =         0.000000
siesta: Eharris =     -1030.674630
siesta: Etot    =     -1030.674831
siesta: FreeEng =     -1030.674831

siesta: Final energy (eV):
siesta:  Band Struct. =    -331.447126
siesta:       Kinetic =     319.080231
siesta:       Hartree =      59.993374
siesta:    Ext. field =       0.000000
siesta:   Exch.-corr. =    -445.956093
siesta:  Ion-electron =    -421.793259
siesta:       Ion-ion =    -541.999084
siesta:       Ekinion =       0.000000
siesta:         Total =   -1030.674831

siesta: Stress tensor (static) (eV/Ang**3):
siesta:     0.000863   -0.000695   -0.000695
siesta:    -0.000695    0.000863   -0.000695
siesta:    -0.000695   -0.000695    0.000863

siesta: Constrained stress tensor (static) (eV/Ang**3):
siesta:     0.000863   -0.000695   -0.000695
siesta:    -0.000695    0.000863   -0.000695
siesta:    -0.000695   -0.000695    0.000863

siesta: Cell volume =        168.400741 Ang**3

siesta: Pressure (static):
siesta:                Solid            Molecule  Units
siesta:          -0.00000940         -0.00002378  Ry/Bohr**3
siesta:          -0.00086299         -0.00218330  eV/Ang**3
siesta:          -1.38268448         -3.49807317  kBar
(Free)E+ p_basis*V_orbitals  =       -1021.737100
(Free)Eharris+ p_basis*V_orbitals  =       -1021.741790

* Maximum dynamic memory allocated : Node    0 =    86 MB

* Maximum memory occured during init_pulay_arrrays            

timer: CPU execution times:
timer:  Routine       Calls   Time/call    Tot.time        %
timer:  siesta            1     776.785     776.785   100.00
timer:  Setup             1       0.120       0.120     0.02
timer:  bands             3       0.516       1.548     0.20
timer:  writewave         3       0.009       0.028     0.00
timer:  KSV_init          1       0.000       0.000     0.00
timer:  IterMD           10      77.497     774.972    99.77
timer:  hsparse          10       0.157       1.572     0.20
timer:  overlap          10       0.130       1.304     0.17
timer:  IterSCF          44      14.154     622.779    80.17
timer:  kinefsm          20       0.125       2.508     0.32
timer:  nlefsm           20       3.482      69.644     8.97
timer:  DHSCF            54       8.340     450.360    57.98
timer:  DHSCF1           10       0.047       0.472     0.06
timer:  DHSCF2           10       2.201      22.009     2.83
timer:  REORD           344       0.000       0.012     0.00
timer:  POISON           64       0.005       0.300     0.04
timer:  DHSCF3           54       7.232     390.540    50.28
timer:  rhoofd           54       3.258     175.923    22.65
timer:  cellXC           54       0.122       6.585     0.85
timer:  vmat             54       3.846     207.697    26.74
timer:  MolMec           20       0.000       0.000     0.00
timer:  diagon           44       5.601     246.451    31.73
timer:  c-eigval       4853       0.015      74.513     9.59
timer:  c-buildHS      4853       0.011      52.660     6.78
timer:  cdiag          9606       0.007      68.000     8.75
timer:  cdiag1         9606       0.001       4.977     0.64
timer:  cdiag2         9606       0.002      17.584     2.26
timer:  cdiag3         9606       0.005      43.894     5.65
timer:  cdiag4         9606       0.000       1.260     0.16
timer:  c-eigvec       4753       0.021      98.579    12.69
timer:  c-buildD       4752       0.016      74.608     9.60
timer:  DHSCF4           10       3.732      37.322     4.80
timer:  dfscf            10       3.500      35.002     4.51
timer:  overfsm          10       0.126       1.256     0.16
timer:  optical           1       0.000       0.000     0.00
  

elaps: ELAPSED times:
elaps:  Routine       Calls   Time/call    Tot.time        %
elaps:  siesta            1     780.781     780.781   100.00
elaps:  Setup             1       0.122       0.122     0.02
elaps:  bands             3       0.518       1.553     0.20
elaps:  writewave         3       0.009       0.028     0.00
elaps:  KSV_init          1       0.000       0.000     0.00
elaps:  IterMD           10      77.896     778.961    99.77
elaps:  hsparse          10       0.158       1.583     0.20
elaps:  overlap          10       0.131       1.313     0.17
elaps:  IterSCF          44      14.224     625.868    80.16
elaps:  kinefsm          20       0.126       2.511     0.32
elaps:  nlefsm           20       3.501      70.030     8.97
elaps:  DHSCF            54       8.383     452.702    57.98
elaps:  DHSCF1           10       0.047       0.472     0.06
elaps:  DHSCF2           10       2.210      22.097     2.83
elaps:  REORD           344       0.000       0.025     0.00
elaps:  POISON           64       0.005       0.307     0.04
elaps:  DHSCF3           54       7.270     392.571    50.28
elaps:  rhoofd           54       3.271     176.652    22.63
elaps:  cellXC           54       0.122       6.593     0.84
elaps:  vmat             54       3.870     208.977    26.77
elaps:  MolMec           20       0.000       0.000     0.00
elaps:  diagon           44       5.629     247.670    31.72
elaps:  c-eigval       4853       0.015      74.845     9.59
elaps:  c-buildHS      4853       0.011      53.002     6.79
elaps:  cdiag          9606       0.007      68.568     8.78
elaps:  cdiag1         9606       0.001       5.065     0.65
elaps:  cdiag2         9606       0.002      17.801     2.28
elaps:  cdiag3         9606       0.005      44.093     5.65
elaps:  cdiag4         9606       0.000       1.356     0.17
elaps:  c-eigvec       4753       0.021      99.187    12.70
elaps:  c-buildD       4752       0.016      74.881     9.59
elaps:  DHSCF4           10       3.755      37.546     4.81
elaps:  dfscf            10       3.522      35.223     4.51
elaps:  overfsm          10       0.126       1.264     0.16
elaps:  optical           1       0.000       0.000     0.00
  
>> End of run:  10-MAY-2013   1:52:06

=====================================================================================
=   BAD TERMINATION OF ONE OF YOUR APPLICATION PROCESSES
=   EXIT CODE: 134
=   CLEANING UP REMAINING PROCESSES
=   YOU CAN IGNORE THE BELOW CLEANUP MESSAGES
=====================================================================================
APPLICATION TERMINATED WITH THE EXIT STRING: Aborted (signal 6)
