Siesta Version:                                        siesta-3.2
Architecture  : x86_64-unknown-linux-gnu--unknown
Compiler flags: f95 -g -O2
SERIAL version

* Running in serial mode
Siesta Version:                                        siesta-3.2
Architecture  : x86_64-unknown-linux-gnu--unknown
Compiler flags: f95 -g -O2
SERIAL version

* Running in serial mode
>> Start of run:   9-MAY-2013  16:24:32

                           ***********************       
                           *  WELCOME TO SIESTA  *       
                           ***********************       

reinit: Reading from standard input
************************** Dump of input data file ****************************
# FDF for silicon
SystemName             silicon          # Descriptive name of the system
SystemLabel            si          # Short name for naming files
NumberOfAtoms 8
NumberOfSpecies 1
%block ChemicalSpeciesLabel
1 14 Si
%endblock ChemicalSpeciesLabel
LatticeConstant  5.40 Ang
##Basis set Definition##
PAO.BasisType          split        # Type of PAO basis set
PAO.EnergyShift        50 meV
PAO.BasisSize          DZP          # (DZP) Double-z + polarization
#%block LatticeVectors
#0.500 0.500 0.000
#0.500 0.000 0.500
#0.000 0.500 0.500
#%endblock LatticeVectors
AtomicCoordinatesFormat NotScaledCartesianAng
%block AtomicCoordinatesAndAtomicSpecies
	0.00000000	0.00000000	0.00000000  1 Si  1
	1.36000000	1.36000000	1.36000000  1 Si  2
	2.72000000	2.72000000	0.00000000  1 Si  3
	4.08000000	4.08000000	1.36000000  1 Si  4
	2.72000000	0.00000000	2.72000000  1 Si  5
	4.08000000	1.36000000	4.08000000  1 Si  6
	0.00000000	2.72000000	2.72000000  1 Si  7
	1.36000000	4.08000000	4.08000000  1 Si  8
%endblock AtomicCoordinatesAndAtomicSpecies
MeshCutoff 100.0 Ry # 100, 120, 180, 260
kgrid_cutoff 30.0 Bohr # 30, 35, 40, 45
DM.Mixingweight  0.3
DM.NumberPulay    3
DM.Tolerance      1.d-3
DM.UseSaveDM      true
ElectronicTemperature 25 meV
SolutionMethod    diagon
XC.functional     LDA	    # Local Density Approximation
XC.authors        CA           # Ceperley-Alder
SpinPolarized     false
MD.TypeOfRun           CG           # Type of dynamics:
MD.VariableCell        true
MD.NumCGsteps          100          # Number of CG steps for coordinate optimization
MD.MaxCGDispl          0.2 Bohr     # Maximum atomic displacement
                                    #   in one CG step (Bohr)
MD.MaxForceTol         0.04 eV/Ang  # Tolerance in the maximum
                                    #   atomic force (Ry/Bohr)
				
##Output Specification##
WriteMDhistory         true         # Trajectory information
WriteCoorStep          true
WriteCoorXmol          true
WriteMDXmol            true
WriteEigenvalues true
WriteKbands      true
WriteBands       true
WriteWaveFunctions true
WriteMullikenPoP   1
%block BandLines
1	1.000	1.000 1.000 L
25	0.000	0.000	0.000 \Gamma
30	2.000	0.000	0.000 X
10	2.000	0.500	0.500 U
35	0.000	0.000	0.000 \Gamma
%endblock BandLines
%block WaveFuncKPoints
0.0 0.0 0.0 from 1 to 50 # > 16 = 4/2*8 (Valenzelektronen/2, Atomzahl ...)
%endblock WaveFuncKpoints
************************** End of input data file *****************************

reinit: -----------------------------------------------------------------------
reinit: System Name: silicon
reinit: -----------------------------------------------------------------------
reinit: System Label: si                                                          
reinit: -----------------------------------------------------------------------
>> Start of run:   9-MAY-2013  16:24:32

                           ***********************       
                           *  WELCOME TO SIESTA  *       
                           ***********************       

reinit: Reading from standard input
************************** Dump of input data file ****************************
************************** End of input data file *****************************

reinit: -----------------------------------------------------------------------
reinit: System Name: 
reinit: -----------------------------------------------------------------------
reinit: System Label: siesta                                                      
reinit: -----------------------------------------------------------------------

initatom: Reading input for the pseudopotentials and atomic orbitals ----------
No species found!!!
ERROR STOP from Node:    0

initatom: Reading input for the pseudopotentials and atomic orbitals ----------
 Species number:            1  Label: Si Atomic number:          14
Ground state valence configuration:   3s02  3p02
Reading pseudopotential information in formatted form from Si.psf

Valence configuration for pseudopotential generation:
3s( 2.00) rc: 1.75
3p( 2.00) rc: 1.94
3d( 0.00) rc: 2.09
4f( 0.00) rc: 2.09
For Si, standard SIESTA heuristics set lmxkb to 3
 (one more than the basis l, including polarization orbitals).
Use PS.lmax or PS.KBprojectors blocks to override.

<basis_specs>
===============================================================================
Si                   Z=  14    Mass=  28.090        Charge= 0.17977+309
Lmxo=1 Lmxkb= 3    BasisType=split      Semic=F
L=0  Nsemic=0  Cnfigmx=3
          n=1  nzeta=2  polorb=0
            splnorm:   0.15000    
               vcte:    0.0000    
               rinn:    0.0000    
                rcs:    0.0000      0.0000    
            lambdas:    1.0000      1.0000    
L=1  Nsemic=0  Cnfigmx=3
          n=1  nzeta=2  polorb=1
            splnorm:   0.15000    
               vcte:    0.0000    
               rinn:    0.0000    
                rcs:    0.0000      0.0000    
            lambdas:    1.0000      1.0000    
-------------------------------------------------------------------------------
L=0  Nkbl=1  erefs: 0.17977+309
L=1  Nkbl=1  erefs: 0.17977+309
L=2  Nkbl=1  erefs: 0.17977+309
L=3  Nkbl=1  erefs: 0.17977+309
===============================================================================
</basis_specs>

atom: Called for Si                    (Z =  14)

read_vps: Pseudopotential generation method:
read_vps: ATM3      Troullier-Martins                       
Total valence charge:    4.00000

xc_check: Exchange-correlation functional:
xc_check: Ceperley-Alder
V l=0 = -2*Zval/r beyond r=  2.5494
V l=1 = -2*Zval/r beyond r=  2.5494
V l=2 = -2*Zval/r beyond r=  2.5494
V l=3 = -2*Zval/r beyond r=  2.5494
All V_l potentials equal beyond r=  2.0613
This should be close to max(r_c) in ps generation
All pots = -2*Zval/r beyond r=  2.5494

VLOCAL1: 99.0% of the norm of Vloc inside     10.216 Ry
VLOCAL1: 99.9% of the norm of Vloc inside     23.282 Ry
atom: Maximum radius for 4*pi*r*r*local-pseudopot. charge    2.45560
atom: Maximum radius for r*vlocal+2*Zval:    2.14012
GHOST: No ghost state for L =  0
GHOST: No ghost state for L =  1
GHOST: No ghost state for L =  2
GHOST: No ghost state for L =  3

KBgen: Kleinman-Bylander projectors: 
   l= 0   rc=  2.782581   el= -0.796617   Ekb=  4.840502   kbcos=  0.288423
   l= 1   rc=  2.888916   el= -0.307040   Ekb=  1.512733   kbcos=  0.296968
   l= 2   rc=  2.962054   el=  0.002313   Ekb= -2.156507   kbcos= -0.061834
   l= 3   rc=  3.192765   el=  0.003402   Ekb= -0.600958   kbcos= -0.007408

KBgen: Total number of  Kleinman-Bylander projectors:   16
atom: -------------------------------------------------------------------------

atom: SANKEY-TYPE ORBITALS:
atom: Selected multiple-zeta basis: split     

SPLIT: Orbitals with angular momentum L= 0

SPLIT: Basis orbitals for state 3s

SPLIT: PAO cut-off radius determined from an
SPLIT: energy shift=  0.003675 Ry

   izeta = 1
                 lambda =    1.000000
                     rc =    6.116033
                 energy =   -0.793486
                kinetic =    0.528761
    potential(screened) =   -1.322246
       potential(ionic) =   -3.766038

   izeta = 2
                 rmatch =    4.530823
              splitnorm =    0.150000
                 energy =   -0.697320
                kinetic =    0.853435
    potential(screened) =   -1.550756
       potential(ionic) =   -4.120809

SPLIT: Orbitals with angular momentum L= 1

SPLIT: Basis orbitals for state 3p

SPLIT: PAO cut-off radius determined from an
SPLIT: energy shift=  0.003675 Ry

   izeta = 1
                 lambda =    1.000000
                     rc =    7.853192
                 energy =   -0.303674
                kinetic =    0.798475
    potential(screened) =   -1.102149
       potential(ionic) =   -3.307324

   izeta = 2
                 rmatch =    5.397360
              splitnorm =    0.150000
                 energy =   -0.229357
                kinetic =    1.170483
    potential(screened) =   -1.399841
       potential(ionic) =   -3.814095

POLgen: Perturbative polarization orbital with L=  2

POLgen: Polarization orbital for state 3p

   izeta = 1
                     rc =    7.853192
                 energy =    0.331669
                kinetic =    1.088595
    potential(screened) =   -0.756926
       potential(ionic) =   -2.714870
atom: Total number of Sankey-type orbitals: 13

atm_pop: Valence configuration (for local Pseudopot. screening):
 3s( 2.00)                                                            
 3p( 2.00)                                                            
Vna: chval, zval:    4.00000   4.00000

Vna:  Cut-off radius for the neutral-atom potential:   7.853192

atom: _________________________________________________________________________

prinput: Basis input ----------------------------------------------------------

PAO.BasisType split     

%block ChemicalSpeciesLabel
    1   14 Si                      # Species index, atomic number, species label
%endblock ChemicalSpeciesLabel

%block PAO.Basis                 # Define Basis set
Si                    2                    # Species label, number of l-shells
 n=3   0   2                         # n, l, Nzeta 
   6.116      4.531   
   1.000      1.000   
 n=3   1   2 P   1                   # n, l, Nzeta, Polarization, NzetaPol
   7.853      5.397   
   1.000      1.000   
%endblock PAO.Basis

prinput: ----------------------------------------------------------------------

coor:   Atomic-coordinates input format  =     Cartesian coordinates
coor:                                          (in Angstroms)

siesta: Atomic coordinates (Bohr) and species
siesta:      0.00000   0.00000   0.00000  1        1
siesta:      2.57003   2.57003   2.57003  1        2
siesta:      5.14006   5.14006   0.00000  1        3
siesta:      7.71009   7.71009   2.57003  1        4
siesta:      5.14006   0.00000   5.14006  1        5
siesta:      7.71009   2.57003   7.71009  1        6
siesta:      0.00000   5.14006   5.14006  1        7
siesta:      2.57003   7.71009   7.71009  1        8

siesta: System type = bulk      

initatomlists: Number of atoms, orbitals, and projectors:      8   104   128

siesta: ******************** Simulation parameters ****************************
siesta:
siesta: The following are some of the parameters of the simulation.
siesta: A complete list of the parameters used, including default values,
siesta: can be found in file out.fdf
siesta:
redata: Non-Collinear-spin run           =     F
redata: SpinPolarized (Up/Down) run      =     F
redata: Number of spin components        =     1
redata: Long output                      =     F
redata: Number of Atomic Species         =        1
redata: Charge density info will appear in .RHO file
redata: Write Mulliken Pop.              =     Atomic and Orbital charges
redata: Mesh Cutoff                      =   100.0000  Ry
redata: Net charge of the system         =     0.0000 |e|
redata: Max. number of SCF Iter          =       50
redata: Performing Pulay mixing using    =     3 iterations
redata: Mix DM in first SCF step ?       =     F
redata: Write Pulay info on disk?        =     F
redata: Discard 1st Pulay DM after  kick =     F
redata: New DM Mixing Weight             =     0.3000
redata: New DM Occupancy tolerance       = 0.000000000001
redata: No kicks to SCF
redata: DM Mixing Weight for Kicks       =     0.5000
redata: DM Tolerance for SCF             =     0.001000
redata: Require Energy convergence for SCF =     F
redata: DM Energy tolerance for SCF      =     0.000100 eV
redata: Require Harris convergence for SCF =     F
redata: DM Harris energy tolerance for SCF =     0.000100 eV
redata: Using Saved Data (generic)   =     F
redata: Use continuation files for DM    =     T
redata: Neglect nonoverlap interactions  =     F
redata: Method of Calculation            =     Diagonalization
redata: Divide and Conquer               =     T
redata: Electronic Temperature           =     0.0018  Ry
redata: Fix the spin of the system       =     F
redata: Dynamics option                  =     CG coord. optimization
redata: Variable cell                    =     T
redata: Use continuation files for CG    =     F
redata: Max atomic displ per move        =     0.2000  Bohr
redata: Maximum number of CG moves       =      100
redata: Force tolerance                  =     0.0016  Ry/Bohr
redata: Stress tolerance                 =     1.0000  GPa
redata: ***********************************************************************
Total number of electrons:    32.000000
Total ionic charge:    32.000000
 Kpoints in:          108 . Kpoints trimmed:          108

siesta: k-grid: Number of k-points =   108
siesta: k-grid: Cutoff (effective) =    16.200 Ang
siesta: k-grid: Supercell and displacements
siesta: k-grid:    0   6   0      0.500
siesta: k-grid:    0   0   6      0.500
siesta: k-grid:    6   0   0      0.500
Naive supercell factors:     5    5    5

superc: Internal auxiliary supercell:     5 x     5 x     5  =     125
superc: Number of atoms, orbitals, and projectors:   1000  13000  16000

* Maximum dynamic memory allocated =     1 MB

siesta:                 ==============================
                            Begin CG move =      0
                        ==============================

outcoor: Atomic coordinates (Ang):                          
    0.00000000    0.00000000    0.00000000   1       1  Si
    1.36000000    1.36000000    1.36000000   1       2  Si
    2.72000000    2.72000000    0.00000000   1       3  Si
    4.08000000    4.08000000    1.36000000   1       4  Si
    2.72000000    0.00000000    2.72000000   1       5  Si
    4.08000000    1.36000000    4.08000000   1       6  Si
    0.00000000    2.72000000    2.72000000   1       7  Si
    1.36000000    4.08000000    4.08000000   1       8  Si

superc: Internal auxiliary supercell:     5 x     5 x     5  =     125
superc: Number of atoms, orbitals, and projectors:   1000  13000  16000

outcell: Unit cell vectors (Ang):
        5.400000    0.000000    0.000000
        0.000000    5.400000    0.000000
        0.000000    0.000000    5.400000

outcell: Cell vector modules (Ang)   :    5.400000    5.400000    5.400000
outcell: Cell angles (23,13,12) (deg):     90.0000     90.0000     90.0000
outcell: Cell volume (Ang**3)        :    157.4640
New_DM. Step:     1
Initializing Density Matrix...

InitMesh: MESH =    36 x    36 x    36 =       46656
InitMesh: Mesh cutoff (required, used) =   100.000   122.834 Ry

* Maximum dynamic memory allocated =    78 MB

stepf: Fermi-Dirac step function

siesta: Program's energy decomposition (eV):
siesta: Ebs     =      -357.898034
siesta: Eions   =      1510.441798
siesta: Ena     =       463.843293
siesta: Ekin    =       288.938730
siesta: Enl     =       136.153549
siesta: DEna    =         0.000001
siesta: DUscf   =         0.000000
siesta: DUext   =         0.000000
siesta: Exc     =      -256.141961
siesta: eta*DQ  =         0.000000
siesta: Emadel  =         0.000000
siesta: Emeta   =         0.000000
siesta: Emolmec =         0.000000
siesta: Ekinion =         0.000000
siesta: Eharris =      -862.396075
siesta: Etot    =      -877.648187
siesta: FreeEng =      -877.648187

siesta: iscf   Eharris(eV)      E_KS(eV)   FreeEng(eV)   dDmax  Ef(eV)
siesta:    1     -862.3961     -877.6482     -877.6482  1.7315 -5.6291
timer: Routine,Calls,Time,% = IterSCF        1      20.609  96.82
elaps: Routine,Calls,Wall,% = IterSCF        1      20.674  96.82
siesta:    2     -861.9454     -861.8059     -861.8059  0.1126 -5.3134
siesta:    3     -861.9205     -862.7392     -862.7392  0.0650 -5.3551
siesta:    4     -861.9155     -861.9016     -861.9016  0.0027 -5.3767
siesta:    5     -861.9156     -861.9159     -861.9159  0.0027 -5.3768
siesta:    6     -861.9156     -861.9242     -861.9242  0.0013 -5.3772
siesta:    7     -861.9156     -861.9205     -861.9205  0.0007 -5.3772

siesta: E_KS(eV) =             -861.9159

siesta: E_KS - E_eggbox =      -861.9159

siesta: Atomic forces (eV/Ang):
----------------------------------------
   Tot   -0.006661   -0.006662   -0.006694
----------------------------------------
   Max    0.331307
   Res    0.232986    sqrt( Sum f_i^2 / 3N )
----------------------------------------
   Max    0.331307    constrained

Stress-tensor-Voigt (kbar):      -23.50      -23.50      -23.50        4.87        4.87        4.87
(Free)E + p*V (eV/cell)     -859.6061
Target enthalpy (eV/cell)     -861.9159

siesta: Stress tensor (static) (eV/Ang**3):
        -0.014669    0.003039    0.003039
         0.003039   -0.014669    0.003039
         0.003039    0.003039   -0.014669

siesta: Pressure (static):         23.50245951  kBar

siesta: Stress tensor (total) (eV/Ang**3):
        -0.014669    0.003039    0.003039
         0.003039   -0.014669    0.003039
         0.003039    0.003039   -0.014669

siesta: Pressure (total):         23.50245951  kBar

mulliken: Mulliken Atomic and Orbital Populations:

Species: Si                  
Atom  Qatom  Qorb
               3s      3s      3py     3pz     3px     3py     3pz     3px     
               3Pdxy   3Pdyz   3Pdz2   3Pdxz   3Pdx2-y2
   1  4.007   0.598   0.591   0.190   0.190   0.190   0.564   0.564   0.564
              0.131   0.131   0.081   0.131   0.081
   2  3.996   0.644   0.567   0.209   0.209   0.209   0.543   0.543   0.543
              0.126   0.126   0.076   0.126   0.076
   3  3.998   0.629   0.575   0.196   0.210   0.196   0.554   0.545   0.554
              0.129   0.127   0.077   0.127   0.079
   4  4.001   0.613   0.583   0.201   0.186   0.201   0.554   0.563   0.554
              0.128   0.130   0.081   0.130   0.078
   5  3.998   0.629   0.575   0.210   0.196   0.196   0.545   0.554   0.554
              0.127   0.127   0.078   0.129   0.077
   6  4.001   0.613   0.583   0.186   0.201   0.201   0.563   0.554   0.554
              0.130   0.130   0.079   0.128   0.080
   7  3.998   0.629   0.575   0.196   0.196   0.210   0.554   0.554   0.545
              0.127   0.129   0.078   0.127   0.077
   8  4.001   0.613   0.583   0.201   0.201   0.186   0.554   0.554   0.563
              0.130   0.128   0.079   0.130   0.080

mulliken: Qtot =       32.000

cgvc: No target stress found, assuming hydrostatic MD.TargetPressure.

cgvc: Target stress (kBar)
cgvc:        -0.000       0.000       0.000
cgvc:         0.000      -0.000       0.000
cgvc:         0.000       0.000      -0.000

* Maximum dynamic memory allocated =    79 MB

siesta:                 ==============================
                            Begin CG move =      1
                        ==============================

outcoor: Atomic coordinates (Ang):                          
    0.02475762    0.02475761    0.02475766   1       1  Si
    1.36816219    1.36816218    1.36816122   1       2  Si
    2.73212136    2.73212127    0.01628517   1       3  Si
    4.07544732    4.07544717    1.36172511   1       4  Si
    2.73212109    0.01628623    2.73212160   1       5  Si
    4.07544698    1.36172557    4.07544656   1       6  Si
    0.01628603    2.73212116    2.73212142   1       7  Si
    1.36172557    4.07544693    4.07544675   1       8  Si
 Kpoints in:          108 . Kpoints trimmed:          108

siesta: k-grid: Number of k-points =   108
siesta: k-grid: Cutoff (effective) =    16.313 Ang
siesta: k-grid: Supercell and displacements
siesta: k-grid:    0   0   6      0.500
siesta: k-grid:    6   0   0      0.500
siesta: k-grid:    0   6   0      0.500
Naive supercell factors:     5    5    5

superc: Internal auxiliary supercell:     5 x     5 x     5  =     125
superc: Number of atoms, orbitals, and projectors:   1000  13000  16000

outcell: Unit cell vectors (Ang):
        5.437616   -0.007794   -0.007794
       -0.007794    5.437616   -0.007794
       -0.007794   -0.007794    5.437616

outcell: Cell vector modules (Ang)   :    5.437627    5.437627    5.437627
outcell: Cell angles (23,13,12) (deg):     90.1641     90.1641     90.1641
outcell: Cell volume (Ang**3)        :    160.7767
New_DM. Step:     2
Re-using DM from previous geometry...
Re-using DM without extrapolation (not allowed)
Density Matrix sparsity pattern changed.

InitMesh: MESH =    36 x    36 x    36 =       46656
InitMesh: Mesh cutoff (required, used) =   100.000   121.142 Ry

siesta: iscf   Eharris(eV)      E_KS(eV)   FreeEng(eV)   dDmax  Ef(eV)
siesta:    1     -861.9782     -861.3421     -861.3421  0.0214 -5.3205
siesta:    2     -862.0593     -861.8980     -861.8980  0.0391 -5.3371
siesta:    3     -861.9514     -861.7729     -861.7729  0.0093 -5.3267
siesta:    4     -861.9513     -861.9361     -861.9361  0.0011 -5.3277
siesta:    5     -861.9513     -861.9412     -861.9412  0.0007 -5.3274

siesta: E_KS(eV) =             -861.9475

siesta: Atomic forces (eV/Ang):
----------------------------------------
   Tot   -0.000413   -0.000413   -0.000424
----------------------------------------
   Max    0.273314
   Res    0.210741    sqrt( Sum f_i^2 / 3N )
----------------------------------------
   Max    0.273314    constrained

Stress-tensor-Voigt (kbar):       -2.89       -2.89       -2.89       -8.34       -8.34       -8.34
(Free)E + p*V (eV/cell)     -861.6575
Target enthalpy (eV/cell)     -861.9475

siesta: Stress tensor (static) (eV/Ang**3):
        -0.001804   -0.005205   -0.005205
        -0.005205   -0.001804   -0.005205
        -0.005205   -0.005205   -0.001804

siesta: Pressure (static):          2.89020994  kBar

siesta: Stress tensor (total) (eV/Ang**3):
        -0.001804   -0.005205   -0.005205
        -0.005205   -0.001804   -0.005205
        -0.005205   -0.005205   -0.001804

siesta: Pressure (total):          2.89020994  kBar

mulliken: Mulliken Atomic and Orbital Populations:

Species: Si                  
Atom  Qatom  Qorb
               3s      3s      3py     3pz     3px     3py     3pz     3px     
               3Pdxy   3Pdyz   3Pdz2   3Pdxz   3Pdx2-y2
   1  3.999   0.646   0.566   0.222   0.222   0.222   0.533   0.533   0.533
              0.124   0.124   0.075   0.124   0.075
   2  4.001   0.628   0.575   0.214   0.214   0.214   0.542   0.542   0.542
              0.126   0.126   0.077   0.126   0.077
   3  4.000   0.633   0.572   0.218   0.212   0.218   0.538   0.542   0.538
              0.125   0.126   0.077   0.126   0.076
   4  4.000   0.639   0.569   0.217   0.222   0.217   0.537   0.534   0.537
              0.125   0.125   0.075   0.125   0.076
   5  4.000   0.633   0.572   0.212   0.218   0.218   0.542   0.538   0.538
              0.126   0.126   0.076   0.125   0.077
   6  4.000   0.639   0.569   0.222   0.217   0.217   0.534   0.537   0.537
              0.125   0.125   0.076   0.125   0.075
   7  4.000   0.633   0.572   0.218   0.218   0.212   0.538   0.538   0.542
              0.126   0.125   0.076   0.126   0.077
   8  4.000   0.639   0.569   0.217   0.217   0.222   0.537   0.537   0.534
              0.125   0.125   0.076   0.125   0.075

mulliken: Qtot =       32.000

* Maximum dynamic memory allocated =    79 MB

siesta:                 ==============================
                            Begin CG move =      2
                        ==============================

outcoor: Atomic coordinates (Ang):                          
    0.01667118    0.01667118    0.01667121   1       1  Si
    1.36550117    1.36550117    1.36550052   1       2  Si
    2.72818410    2.72818404    0.01094211   1       3  Si
    4.07696182    4.07696171    1.36114134   1       4  Si
    2.72818392    0.01094282    2.72818426   1       5  Si
    4.07696159    1.36114164    4.07696130   1       6  Si
    0.01094268    2.72818397    2.72818414   1       7  Si
    1.36114165    4.07696156    4.07696143   1       8  Si
 Kpoints in:          108 . Kpoints trimmed:          108

siesta: k-grid: Number of k-points =   108
siesta: k-grid: Cutoff (effective) =    16.276 Ang
siesta: k-grid: Supercell and displacements
siesta: k-grid:    0   0   6      0.500
siesta: k-grid:    6   0   0      0.500
siesta: k-grid:    0   6   0      0.500
Naive supercell factors:     5    5    5

superc: Internal auxiliary supercell:     5 x     5 x     5  =     125
superc: Number of atoms, orbitals, and projectors:   1000  13000  16000

outcell: Unit cell vectors (Ang):
        5.425363   -0.005255   -0.005255
       -0.005255    5.425363   -0.005255
       -0.005255   -0.005255    5.425363

outcell: Cell vector modules (Ang)   :    5.425369    5.425369    5.425369
outcell: Cell angles (23,13,12) (deg):     90.1109     90.1109     90.1109
outcell: Cell volume (Ang**3)        :    159.6928
New_DM. Step:     3
Re-using DM from previous geometry...
Re-using DM without extrapolation (not allowed)

InitMesh: MESH =    36 x    36 x    36 =       46656
InitMesh: Mesh cutoff (required, used) =   100.000   121.689 Ry

siesta: iscf   Eharris(eV)      E_KS(eV)   FreeEng(eV)   dDmax  Ef(eV)
siesta:    1     -861.9673     -862.1430     -862.1430  0.0067 -5.3534
siesta:    2     -861.9756     -861.9589     -861.9589  0.0121 -5.3531
siesta:    3     -861.9645     -862.0100     -862.0100  0.0030 -5.3525
siesta:    4     -861.9645     -861.9627     -861.9627  0.0004 -5.3518

siesta: E_KS(eV) =             -861.9630

siesta: Atomic forces (eV/Ang):
----------------------------------------
   Tot   -0.014564   -0.014558   -0.014585
----------------------------------------
   Max    0.105483
   Res    0.089938    sqrt( Sum f_i^2 / 3N )
----------------------------------------
   Max    0.105483    constrained

Stress-tensor-Voigt (kbar):       -8.61       -8.61       -8.61       -4.47       -4.47       -4.47
(Free)E + p*V (eV/cell)     -861.1052
Target enthalpy (eV/cell)     -861.9630

siesta: Stress tensor (static) (eV/Ang**3):
        -0.005372   -0.002788   -0.002788
        -0.002788   -0.005372   -0.002788
        -0.002788   -0.002788   -0.005372

siesta: Pressure (static):          8.60668648  kBar

siesta: Stress tensor (total) (eV/Ang**3):
        -0.005372   -0.002788   -0.002788
        -0.002788   -0.005372   -0.002788
        -0.002788   -0.002788   -0.005372

siesta: Pressure (total):          8.60668648  kBar

mulliken: Mulliken Atomic and Orbital Populations:

Species: Si                  
Atom  Qatom  Qorb
               3s      3s      3py     3pz     3px     3py     3pz     3px     
               3Pdxy   3Pdyz   3Pdz2   3Pdxz   3Pdx2-y2
   1  4.000   0.630   0.574   0.211   0.211   0.211   0.544   0.544   0.544
              0.126   0.126   0.077   0.126   0.077
   2  4.000   0.634   0.572   0.212   0.212   0.212   0.542   0.542   0.542
              0.126   0.126   0.077   0.126   0.077
   3  4.000   0.632   0.573   0.211   0.212   0.211   0.543   0.543   0.543
              0.126   0.126   0.077   0.126   0.077
   4  4.000   0.631   0.573   0.211   0.210   0.211   0.543   0.544   0.543
              0.126   0.126   0.077   0.126   0.077
   5  4.000   0.632   0.573   0.212   0.211   0.211   0.543   0.543   0.543
              0.126   0.126   0.077   0.126   0.077
   6  4.000   0.631   0.573   0.210   0.211   0.211   0.544   0.543   0.543
              0.126   0.126   0.077   0.126   0.077
   7  4.000   0.632   0.573   0.211   0.211   0.212   0.543   0.543   0.543
              0.126   0.126   0.077   0.126   0.077
   8  4.000   0.631   0.573   0.211   0.211   0.210   0.543   0.543   0.544
              0.126   0.126   0.077   0.126   0.077

mulliken: Qtot =       32.000

cgvc: Finished line minimization    1.  Mean atomic displacement =    0.0477

* Maximum dynamic memory allocated =    79 MB

siesta:                 ==============================
                            Begin CG move =      3
                        ==============================

outcoor: Atomic coordinates (Ang):                          
    0.01373259    0.01373245    0.01373264   1       1  Si
    1.39188280    1.39188280    1.39188005   1       2  Si
    2.73580527    2.73580500    0.01895899   1       3  Si
    4.11349499    4.11349509    1.39517422   1       4  Si
    2.73580465    0.01895907    2.73580461   1       5  Si
    4.11349524    1.39517436    4.11349399   1       6  Si
    0.01895896    2.73580493    2.73580463   1       7  Si
    1.39517410    4.11349542    4.11349391   1       8  Si
 Kpoints in:          108 . Kpoints trimmed:          108

siesta: k-grid: Number of k-points =   108
siesta: k-grid: Cutoff (effective) =    16.375 Ang
siesta: k-grid: Supercell and displacements
siesta: k-grid:    0   0   6      0.500
siesta: k-grid:    6   0   0      0.500
siesta: k-grid:    0   6   0      0.500
Naive supercell factors:     5    5    5

superc: Internal auxiliary supercell:     5 x     5 x     5  =     125
superc: Number of atoms, orbitals, and projectors:   1000  13000  16000

outcell: Unit cell vectors (Ang):
        5.458247    0.004066    0.004066
        0.004066    5.458247    0.004065
        0.004066    0.004065    5.458246

outcell: Cell vector modules (Ang)   :    5.458250    5.458250    5.458249
outcell: Cell angles (23,13,12) (deg):     89.9146     89.9146     89.9146
outcell: Cell volume (Ang**3)        :    162.6143
New_DM. Step:     4
Re-using DM from previous geometry...
Re-using DM without extrapolation (not allowed)
Density Matrix sparsity pattern changed.

InitMesh: MESH =    36 x    36 x    36 =       46656
InitMesh: Mesh cutoff (required, used) =   100.000   120.227 Ry

siesta: iscf   Eharris(eV)      E_KS(eV)   FreeEng(eV)   dDmax  Ef(eV)
siesta:    1     -861.9566     -861.4504     -861.4504  0.0170 -5.2921
siesta:    2     -861.9683     -861.9440     -861.9440  0.0174 -5.3006
siesta:    3     -861.9521     -861.8913     -861.8913  0.0026 -5.2958
siesta:    4     -861.9521     -861.9484     -861.9484  0.0008 -5.2961

siesta: E_KS(eV) =             -861.9514

siesta: Atomic forces (eV/Ang):
----------------------------------------
   Tot    0.010080    0.010084    0.010081
----------------------------------------
   Max    0.238292
   Res    0.171883    sqrt( Sum f_i^2 / 3N )
----------------------------------------
   Max    0.238292    constrained

Stress-tensor-Voigt (kbar):        7.24        7.24        7.24        5.76        5.76        5.76
(Free)E + p*V (eV/cell)     -862.6859
Target enthalpy (eV/cell)     -861.9514

siesta: Stress tensor (static) (eV/Ang**3):
         0.004517    0.003593    0.003594
         0.003593    0.004517    0.003594
         0.003594    0.003594    0.004517

siesta: Pressure (static):         -7.23660835  kBar

siesta: Stress tensor (total) (eV/Ang**3):
         0.004517    0.003593    0.003594
         0.003593    0.004517    0.003594
         0.003594    0.003594    0.004517

siesta: Pressure (total):         -7.23660835  kBar

mulliken: Mulliken Atomic and Orbital Populations:

Species: Si                  
Atom  Qatom  Qorb
               3s      3s      3py     3pz     3px     3py     3pz     3px     
               3Pdxy   3Pdyz   3Pdz2   3Pdxz   3Pdx2-y2
   1  3.999   0.655   0.562   0.234   0.234   0.234   0.523   0.523   0.523
              0.122   0.122   0.073   0.122   0.073
   2  4.002   0.634   0.572   0.223   0.223   0.223   0.534   0.534   0.534
              0.125   0.125   0.076   0.125   0.076
   3  4.000   0.641   0.568   0.229   0.222   0.229   0.529   0.533   0.529
              0.123   0.124   0.075   0.124   0.074
   4  3.999   0.649   0.565   0.227   0.234   0.227   0.529   0.525   0.529
              0.123   0.123   0.074   0.123   0.075
   5  4.000   0.641   0.568   0.222   0.229   0.229   0.533   0.529   0.529
              0.124   0.124   0.075   0.123   0.075
   6  3.999   0.649   0.565   0.234   0.227   0.227   0.525   0.529   0.529
              0.123   0.123   0.074   0.123   0.074
   7  4.000   0.641   0.568   0.229   0.229   0.222   0.529   0.529   0.533
              0.124   0.123   0.075   0.124   0.075
   8  3.999   0.649   0.565   0.227   0.227   0.234   0.529   0.529   0.525
              0.123   0.123   0.074   0.123   0.074

mulliken: Qtot =       32.000

* Maximum dynamic memory allocated =    88 MB

siesta:                 ==============================
                            Begin CG move =      4
                        ==============================

outcoor: Atomic coordinates (Ang):                          
    0.01551863    0.01551857    0.01551867   1       1  Si
    1.37588086    1.37588086    1.37587939   1       2  Si
    2.73121709    2.73121695    0.01411867   1       3  Si
    4.09136808    4.09136806    1.37455144   1       4  Si
    2.73121674    0.01411913    2.73121693   1       5  Si
    4.09136805    1.37455168    4.09136738   1       6  Si
    0.01411901    2.73121688    2.73121687   1       7  Si
    1.37455159    4.09136809    4.09136742   1       8  Si
 Kpoints in:          108 . Kpoints trimmed:          108

siesta: k-grid: Number of k-points =   108
siesta: k-grid: Cutoff (effective) =    16.315 Ang
siesta: k-grid: Supercell and displacements
siesta: k-grid:    0   0   6      0.500
siesta: k-grid:    6   0   0      0.500
siesta: k-grid:    0   6   0      0.500
Naive supercell factors:     5    5    5

superc: Internal auxiliary supercell:     5 x     5 x     5  =     125
superc: Number of atoms, orbitals, and projectors:   1000  13000  16000

outcell: Unit cell vectors (Ang):
        5.438339   -0.001577   -0.001578
       -0.001577    5.438339   -0.001578
       -0.001578   -0.001578    5.438339

outcell: Cell vector modules (Ang)   :    5.438339    5.438339    5.438339
outcell: Cell angles (23,13,12) (deg):     90.0332     90.0332     90.0332
outcell: Cell volume (Ang**3)        :    160.8417
New_DM. Step:     5
Re-using DM from previous geometry...
Re-using DM without extrapolation (not allowed)
Density Matrix sparsity pattern changed.

InitMesh: MESH =    36 x    36 x    36 =       46656
InitMesh: Mesh cutoff (required, used) =   100.000   121.108 Ry

siesta: iscf   Eharris(eV)      E_KS(eV)   FreeEng(eV)   dDmax  Ef(eV)
siesta:    1     -861.9730     -862.2645     -862.2645  0.0201 -5.3451
siesta:    2     -861.9770     -861.9684     -861.9684  0.0102 -5.3405
siesta:    3     -861.9713     -861.9936     -861.9936  0.0016 -5.3410
siesta:    4     -861.9713     -861.9707     -861.9707  0.0005 -5.3410

siesta: E_KS(eV) =             -861.9696

siesta: Atomic forces (eV/Ang):
----------------------------------------
   Tot    0.000560    0.000562    0.000545
----------------------------------------
   Max    0.046048
   Res    0.032036    sqrt( Sum f_i^2 / 3N )
----------------------------------------
   Max    0.046048    constrained

Stress-tensor-Voigt (kbar):       -1.21       -1.21       -1.21       -0.15       -0.15       -0.15
(Free)E + p*V (eV/cell)     -861.8482
Target enthalpy (eV/cell)     -861.9696

siesta: Stress tensor (static) (eV/Ang**3):
        -0.000755   -0.000095   -0.000095
        -0.000095   -0.000755   -0.000095
        -0.000095   -0.000095   -0.000755

siesta: Pressure (static):          1.20907588  kBar

siesta: Stress tensor (total) (eV/Ang**3):
        -0.000755   -0.000095   -0.000095
        -0.000095   -0.000755   -0.000095
        -0.000095   -0.000095   -0.000755

siesta: Pressure (total):          1.20907588  kBar

mulliken: Mulliken Atomic and Orbital Populations:

Species: Si                  
Atom  Qatom  Qorb
               3s      3s      3py     3pz     3px     3py     3pz     3px     
               3Pdxy   3Pdyz   3Pdz2   3Pdxz   3Pdx2-y2
   1  4.000   0.640   0.569   0.219   0.219   0.219   0.536   0.536   0.536
              0.125   0.125   0.075   0.125   0.075
   2  4.000   0.633   0.572   0.216   0.216   0.216   0.539   0.539   0.539
              0.125   0.125   0.076   0.125   0.076
   3  4.000   0.635   0.571   0.218   0.216   0.218   0.538   0.539   0.538
              0.125   0.125   0.076   0.125   0.076
   4  4.000   0.637   0.570   0.218   0.219   0.218   0.538   0.536   0.538
              0.125   0.125   0.076   0.125   0.076
   5  4.000   0.635   0.571   0.216   0.218   0.218   0.539   0.538   0.538
              0.125   0.125   0.076   0.125   0.076
   6  4.000   0.637   0.570   0.219   0.218   0.218   0.536   0.538   0.538
              0.125   0.125   0.076   0.125   0.076
   7  4.000   0.635   0.571   0.218   0.218   0.216   0.538   0.538   0.539
              0.125   0.125   0.076   0.125   0.076
   8  4.000   0.637   0.570   0.218   0.218   0.219   0.538   0.538   0.536
              0.125   0.125   0.076   0.125   0.076

mulliken: Qtot =       32.000

cgvc: Finished line minimization    2.  Mean atomic displacement =    0.0188

* Maximum dynamic memory allocated =    88 MB

siesta:                 ==============================
                            Begin CG move =      5
                        ==============================

outcoor: Atomic coordinates (Ang):                          
    0.01379383    0.01379457    0.01379375   1       1  Si
    1.37692725    1.37692731    1.37693075   1       2  Si
    2.74381494    2.74381509    0.01619289   1       3  Si
    4.10750238    4.10750225    1.37843744   1       4  Si
    2.74381405    0.01619561    2.74381014   1       5  Si
    4.10750104    1.37843730    4.10750155   1       6  Si
    0.01619550    2.74381438    2.74381039   1       7  Si
    1.37843792    4.10750079    4.10750152   1       8  Si
 Kpoints in:          108 . Kpoints trimmed:          108

siesta: k-grid: Number of k-points =   108
siesta: k-grid: Cutoff (effective) =    16.358 Ang
siesta: k-grid: Supercell and displacements
siesta: k-grid:    6   0   0      0.500
siesta: k-grid:    0   6   0      0.500
siesta: k-grid:    0   0   6      0.500
Naive supercell factors:     5    5    5

superc: Internal auxiliary supercell:     5 x     5 x     5  =     125
superc: Number of atoms, orbitals, and projectors:   1000  13000  16000

outcell: Unit cell vectors (Ang):
        5.452611    0.001745    0.001744
        0.001745    5.452611    0.001744
        0.001744    0.001744    5.452611

outcell: Cell vector modules (Ang)   :    5.452611    5.452611    5.452612
outcell: Cell angles (23,13,12) (deg):     89.9633     89.9633     89.9633
outcell: Cell volume (Ang**3)        :    162.1113
New_DM. Step:     6
Re-using DM from previous geometry...
Re-using DM without extrapolation (not allowed)
Density Matrix sparsity pattern changed.

InitMesh: MESH =    36 x    36 x    36 =       46656
InitMesh: Mesh cutoff (required, used) =   100.000   120.475 Ry

siesta: iscf   Eharris(eV)      E_KS(eV)   FreeEng(eV)   dDmax  Ef(eV)
siesta:    1     -861.9710     -861.7500     -861.7500  0.0076 -5.3226
siesta:    2     -861.9748     -861.9675     -861.9675  0.0095 -5.3276
siesta:    3     -861.9699     -861.9294     -861.9294  0.0018 -5.3256
siesta:    4     -861.9698     -861.9675     -861.9675  0.0003 -5.3260

siesta: E_KS(eV) =             -861.9687

siesta: Atomic forces (eV/Ang):
----------------------------------------
   Tot    0.007171    0.007168    0.007177
----------------------------------------
   Max    0.039650
   Res    0.026693    sqrt( Sum f_i^2 / 3N )
----------------------------------------
   Max    0.039650    constrained

Stress-tensor-Voigt (kbar):        5.24        5.24        5.24        0.26        0.26        0.26
(Free)E + p*V (eV/cell)     -862.4989
Target enthalpy (eV/cell)     -861.9687

siesta: Stress tensor (static) (eV/Ang**3):
         0.003270    0.000165    0.000164
         0.000165    0.003270    0.000164
         0.000164    0.000164    0.003270

siesta: Pressure (static):         -5.23978430  kBar

siesta: Stress tensor (total) (eV/Ang**3):
         0.003270    0.000165    0.000164
         0.000165    0.003270    0.000164
         0.000164    0.000164    0.003270

siesta: Pressure (total):         -5.23978430  kBar

mulliken: Mulliken Atomic and Orbital Populations:

Species: Si                  
Atom  Qatom  Qorb
               3s      3s      3py     3pz     3px     3py     3pz     3px     
               3Pdxy   3Pdyz   3Pdz2   3Pdxz   3Pdx2-y2
   1  4.000   0.639   0.570   0.223   0.223   0.223   0.533   0.533   0.533
              0.124   0.124   0.075   0.124   0.075
   2  4.000   0.645   0.566   0.227   0.227   0.227   0.530   0.530   0.530
              0.123   0.123   0.075   0.123   0.075
   3  4.000   0.644   0.567   0.225   0.227   0.225   0.531   0.530   0.531
              0.124   0.123   0.075   0.123   0.075
   4  4.000   0.641   0.568   0.226   0.224   0.226   0.531   0.532   0.531
              0.124   0.124   0.075   0.124   0.075
   5  4.000   0.644   0.567   0.227   0.225   0.225   0.530   0.531   0.531
              0.123   0.123   0.075   0.124   0.075
   6  4.000   0.641   0.568   0.224   0.226   0.226   0.532   0.531   0.531
              0.124   0.124   0.075   0.124   0.075
   7  4.000   0.644   0.567   0.225   0.225   0.227   0.531   0.531   0.530
              0.123   0.124   0.075   0.123   0.075
   8  4.000   0.641   0.568   0.226   0.226   0.224   0.531   0.531   0.532
              0.124   0.124   0.075   0.124   0.075

mulliken: Qtot =       32.000

* Maximum dynamic memory allocated =    88 MB

outcoor: Relaxed atomic coordinates (Ang):                  
    0.01379383    0.01379457    0.01379375   1       1  Si
    1.37692725    1.37692731    1.37693075   1       2  Si
    2.74381494    2.74381509    0.01619289   1       3  Si
    4.10750238    4.10750225    1.37843744   1       4  Si
    2.74381405    0.01619561    2.74381014   1       5  Si
    4.10750104    1.37843730    4.10750155   1       6  Si
    0.01619550    2.74381438    2.74381039   1       7  Si
    1.37843792    4.10750079    4.10750152   1       8  Si

outcell: Unit cell vectors (Ang):
        5.452611    0.001745    0.001744
        0.001745    5.452611    0.001744
        0.001744    0.001744    5.452611

outcell: Cell vector modules (Ang)   :    5.452611    5.452611    5.452612
outcell: Cell angles (23,13,12) (deg):     89.9633     89.9633     89.9633
outcell: Cell volume (Ang**3)        :    162.1113

coxmol: Writing XMOL coordinates into file si.xyz                                                          
Writing WFSX for selected k-points in si.selected.WFSX

writewave: Wave Functions Coefficients

     Number of k-points =        1
        Number of Spins =        1
   Number of basis orbs =      104


                                                                  ******
            k-point =        1    0.000000  0.000000  0.000000
     Spin component =        1
 Num. wavefunctions =       50
Use readwfsx utility to print wavefunction coefficients from WFSX file
Computing bands...

siesta: Band k vectors (Bohr**-1):
  ik           k
   1    0.307863    0.307863    0.307863
   2    0.295548    0.295548    0.295548
   3    0.283234    0.283234    0.283234
   4    0.270919    0.270919    0.270919
   5    0.258605    0.258605    0.258605
   6    0.246290    0.246290    0.246290
   7    0.233976    0.233976    0.233976
   8    0.221661    0.221661    0.221661
   9    0.209347    0.209347    0.209347
  10    0.197032    0.197032    0.197032
  11    0.184718    0.184718    0.184718
  12    0.172403    0.172403    0.172403
  13    0.160089    0.160089    0.160089
  14    0.147774    0.147774    0.147774
  15    0.135460    0.135460    0.135460
  16    0.123145    0.123145    0.123145
  17    0.110831    0.110831    0.110831
  18    0.098516    0.098516    0.098516
  19    0.086202    0.086202    0.086202
  20    0.073887    0.073887    0.073887
  21    0.061573    0.061573    0.061573
  22    0.049258    0.049258    0.049258
  23    0.036944    0.036944    0.036944
  24    0.024629    0.024629    0.024629
  25    0.012315    0.012315    0.012315
  26    0.000000    0.000000    0.000000
  27    0.020524    0.000000    0.000000
  28    0.041048    0.000000    0.000000
  29    0.061573    0.000000    0.000000
  30    0.082097    0.000000    0.000000
  31    0.102621    0.000000    0.000000
  32    0.123145    0.000000    0.000000
  33    0.143669    0.000000    0.000000
  34    0.164193    0.000000    0.000000
  35    0.184718    0.000000    0.000000
  36    0.205242    0.000000    0.000000
  37    0.225766    0.000000    0.000000
  38    0.246290    0.000000    0.000000
  39    0.266814    0.000000    0.000000
  40    0.287339    0.000000    0.000000
  41    0.307863    0.000000    0.000000
  42    0.328387    0.000000    0.000000
  43    0.348911    0.000000    0.000000
  44    0.369435    0.000000    0.000000
  45    0.389959    0.000000    0.000000
  46    0.410484    0.000000    0.000000
  47    0.431008    0.000000    0.000000
  48    0.451532    0.000000    0.000000
  49    0.472056    0.000000    0.000000
  50    0.492580    0.000000    0.000000
  51    0.513104    0.000000    0.000000
  52    0.533629    0.000000    0.000000
  53    0.554153    0.000000    0.000000
  54    0.574677    0.000000    0.000000
  55    0.595201    0.000000    0.000000
  56    0.615725    0.000000    0.000000
  57    0.615725    0.015393    0.015393
  58    0.615725    0.030786    0.030786
  59    0.615725    0.046179    0.046179
  60    0.615725    0.061573    0.061573
  61    0.615725    0.076966    0.076966
  62    0.615725    0.092359    0.092359
  63    0.615725    0.107752    0.107752
  64    0.615725    0.123145    0.123145
  65    0.615725    0.138538    0.138538
  66    0.615725    0.153931    0.153931
  67    0.598133    0.149533    0.149533
  68    0.580541    0.145135    0.145135
  69    0.562949    0.140737    0.140737
  70    0.545357    0.136339    0.136339
  71    0.527765    0.131941    0.131941
  72    0.510172    0.127543    0.127543
  73    0.492580    0.123145    0.123145
  74    0.474988    0.118747    0.118747
  75    0.457396    0.114349    0.114349
  76    0.439804    0.109951    0.109951
  77    0.422212    0.105553    0.105553
  78    0.404620    0.101155    0.101155
  79    0.387027    0.096757    0.096757
  80    0.369435    0.092359    0.092359
  81    0.351843    0.087961    0.087961
  82    0.334251    0.083563    0.083563
  83    0.316659    0.079165    0.079165
  84    0.299067    0.074767    0.074767
  85    0.281474    0.070369    0.070369
  86    0.263882    0.065971    0.065971
  87    0.246290    0.061573    0.061573
  88    0.228698    0.057175    0.057175
  89    0.211106    0.052776    0.052776
  90    0.193514    0.048378    0.048378
  91    0.175922    0.043980    0.043980
  92    0.158329    0.039582    0.039582
  93    0.140737    0.035184    0.035184
  94    0.123145    0.030786    0.030786
  95    0.105553    0.026388    0.026388
  96    0.087961    0.021990    0.021990
  97    0.070369    0.017592    0.017592
  98    0.052776    0.013194    0.013194
  99    0.035184    0.008796    0.008796
 100    0.017592    0.004398    0.004398
 101    0.000000    0.000000    0.000000

siesta: Band energies (eV):
  ik is    eps
   1  1 -15.29 -15.27 -15.27 -15.26 -12.65 -12.64 -12.64 -12.63  -6.89  -6.89
         -6.89  -6.89  -6.89  -6.87  -6.86  -6.86  -4.23  -4.23  -4.23  -4.22
         -2.22  -2.22  -2.21  -2.21  -2.21  -2.21  -2.19  -2.19   3.14   3.15
          3.15   3.19   5.39   5.39   5.40   5.42   5.42   5.46   5.46   5.46
          5.68   5.72   5.72   5.73   5.96   5.96   5.97   5.97   5.97   5.97
          5.99   5.99   8.21   8.22   8.22   8.22  16.43  16.45  16.45  16.45
         17.49  17.49  17.49  17.49  17.49  17.52  17.53  17.53  19.35  19.35
         19.36  19.38  19.38  19.38  19.40  19.40  20.70  20.73  20.73  20.73
         29.38  29.38  29.38  29.40  29.40  29.40  29.41  29.41  69.91  70.14
         70.14  70.20  72.35  72.35  72.39  72.81  72.81  73.03  73.56  73.56
        115.63 115.76 115.76 116.53
   2  1 -15.29 -15.26 -15.26 -15.26 -12.64 -12.64 -12.64 -12.62  -6.91  -6.91
         -6.91  -6.89  -6.89  -6.88  -6.86  -6.86  -4.22  -4.21  -4.21  -4.21
         -2.22  -2.22  -2.22  -2.20  -2.20  -2.20  -2.19  -2.19   3.13   3.15
          3.15   3.19   5.19   5.19   5.19   5.28   5.28   5.45   5.45   5.45
          5.65   5.79   5.79   5.80   5.98   5.98   5.98   6.11   6.11   6.13
          6.13   6.13   8.22   8.22   8.22   8.24  16.40  16.45  16.45  16.45
         17.45  17.45  17.46  17.47  17.47  17.51  17.51  17.51  19.35  19.35
         19.35  19.38  19.38  19.38  19.42  19.42  20.57  20.57  20.57  20.74
         29.37  29.37  29.37  29.38  29.38  29.38  29.41  29.41  69.55  70.07
         70.07  70.08  71.25  71.27  71.27  72.18  72.18  72.37  73.44  73.44
        114.44 114.54 114.54 115.79
   3  1 -15.34 -15.26 -15.26 -15.26 -12.62 -12.62 -12.62 -12.55  -7.01  -7.01
         -7.01  -6.91  -6.91  -6.91  -6.86  -6.86  -4.21  -4.10  -4.10  -4.10
         -2.24  -2.24  -2.24  -2.19  -2.19  -2.15  -2.14  -2.14   3.11   3.12
          3.12   3.17   4.73   4.73   4.73   4.90   4.90   5.42   5.42   5.43
          5.52   5.86   5.86   5.86   6.03   6.03   6.03   6.53   6.53   6.64
          6.64   6.64   8.26   8.26   8.26   8.34  16.30  16.41  16.41  16.41
         17.26  17.26  17.33  17.34  17.34  17.47  17.47  17.47  19.29  19.29
         19.29  19.36  19.36  19.36  19.54  19.54  19.90  19.90  19.90  20.94
         29.19  29.19  29.19  29.40  29.40  29.40  29.45  29.45  65.78  65.81
         65.81  67.46  69.28  69.28  69.41  70.71  70.75  70.75  73.15  73.15
        108.28 108.35 108.35 112.53
   4  1 -15.43 -15.25 -15.25 -15.25 -12.60 -12.60 -12.60 -12.41  -7.18  -7.18
         -7.18  -6.96  -6.96  -6.95  -6.85  -6.85  -4.19  -3.94  -3.94  -3.94
         -2.28  -2.28  -2.28  -2.18  -2.18  -2.06  -2.06  -2.06   3.02   3.02
          3.02   3.15   4.34   4.34   4.34   4.51   4.51   5.31   5.38   5.38
          5.39   5.94   5.94   5.94   6.10   6.11   6.11   6.99   6.99   7.18
          7.18   7.19   8.34   8.35   8.35   8.49  16.15  16.30  16.30  16.30
         16.96  16.96  17.11  17.12  17.12  17.41  17.42  17.42  19.00  19.00
         19.00  19.18  19.18  19.18  19.41  19.41  19.41  19.73  19.73  21.26
         28.87  28.87  28.88  29.51  29.52  29.52  29.53  29.53  59.49  59.51
         59.51  63.79  65.30  65.30  65.40  71.24  71.27  71.27  72.73  72.73
         99.22  99.26  99.26 108.17
   5  1 -15.55 -15.24 -15.24 -15.24 -12.56 -12.56 -12.56 -12.23  -7.39  -7.39
         -7.39  -7.02  -7.02  -7.02  -6.83  -6.83  -4.17  -3.76  -3.76  -3.76
         -2.30  -2.30  -2.30  -2.16  -2.16  -1.93  -1.93  -1.93   2.80   2.80
          2.81   3.12   4.08   4.08   4.08   4.13   4.13   5.07   5.34   5.34
          5.34   6.05   6.05   6.05   6.20   6.20   6.20   7.46   7.46   7.69
          7.69   7.70   8.51   8.51   8.51   8.63  16.01  16.06  16.06  16.06
         16.59  16.59  16.81  16.82  16.82  17.37  17.37  17.38  18.32  18.32
         18.33  19.02  19.02  19.02  19.40  19.40  19.40  19.93  19.93  21.66
         28.43  28.43  28.43  29.64  29.64  29.74  29.74  29.74  53.31  53.33
         53.33  59.09  61.47  61.47  61.54  71.79  71.82  71.82  72.16  72.16
         90.94  90.96  90.96 103.91
   6  1 -15.68 -15.22 -15.22 -15.22 -12.51 -12.51 -12.51 -12.01  -7.62  -7.62
         -7.62  -7.10  -7.10  -7.10  -6.80  -6.80  -4.14  -3.60  -3.60  -3.60
         -2.28  -2.28  -2.28  -2.14  -2.14  -1.76  -1.76  -1.76   2.45   2.45
          2.45   3.07   3.76   3.76   3.99   3.99   3.99   4.84   5.30   5.30
          5.30   6.17   6.17   6.18   6.30   6.30   6.30   7.94   7.94   8.05
          8.05   8.06   8.74   8.86   8.86   8.86  15.69  15.69  15.69  15.93
         16.19  16.19  16.46  16.46  16.46  17.32  17.32  17.32  17.93  17.93
         17.93  18.81  18.81  18.81  19.42  19.42  19.42  20.13  20.13  22.10
         27.88  27.88  27.88  29.76  29.76  30.08  30.08  30.08  47.71  47.73
         47.73  54.04  58.43  58.43  58.47  71.45  71.45  72.05  72.08  72.08
         85.32  85.32  85.32 100.24
   7  1 -15.83 -15.20 -15.19 -15.19 -12.45 -12.45 -12.45 -11.75  -7.87  -7.87
         -7.87  -7.19  -7.19  -7.19  -6.77  -6.77  -4.10  -3.50  -3.50  -3.50
         -2.18  -2.18  -2.18  -2.12  -2.12  -1.57  -1.57  -1.57   2.01   2.01
          2.02   2.98   3.41   3.41   3.99   3.99   3.99   4.64   5.27   5.27
          5.27   6.31   6.31   6.31   6.41   6.42   6.42   8.26   8.26   8.26
          8.43   8.43   8.78   9.38   9.38   9.38  15.26  15.26  15.26  15.77
         15.77  15.92  16.06  16.07  16.07  17.17  17.17  17.18  17.83  17.83
         17.83  18.56  18.56  18.56  19.47  19.47  19.48  20.31  20.31  22.57
         27.24  27.24  27.24  29.91  29.91  30.51  30.51  30.51  42.96  42.97
         42.97  49.28  56.32  56.32  56.35  70.68  70.68  71.68  71.70  71.70
         82.39  82.39  82.40  97.05
   8  1 -15.98 -15.17 -15.16 -15.16 -12.39 -12.39 -12.39 -11.48  -8.11  -8.11
         -8.11  -7.29  -7.29  -7.29  -6.73  -6.73  -4.06  -3.50  -3.50  -3.49
         -2.10  -2.10  -1.98  -1.97  -1.97  -1.34  -1.34  -1.34   1.55   1.55
          1.55   2.85   3.09   3.09   4.05   4.05   4.05   4.49   5.24   5.24
          5.24   6.45   6.45   6.46   6.53   6.53   6.53   8.41   8.41   8.42
          8.73   8.90   8.90   9.98   9.98   9.98  14.83  14.83  14.83  15.36
         15.36  15.65  15.65  15.65  15.99  16.99  16.99  16.99  17.90  17.90
         17.90  18.27  18.27  18.27  19.57  19.57  19.57  20.47  20.47  23.05
         26.56  26.56  26.56  30.07  30.07  31.00  31.01  31.01  39.09  39.11
         39.11  45.16  55.07  55.07  55.09  69.91  69.91  70.67  70.69  70.69
         81.35  81.35  81.37  94.10
   9  1 -16.13 -15.13 -15.13 -15.13 -12.32 -12.32 -12.32 -11.18  -8.36  -8.35
         -8.35  -7.40  -7.40  -7.39  -6.69  -6.69  -4.01  -3.56  -3.56  -3.55
         -2.08  -2.08  -1.69  -1.69  -1.69  -1.09  -1.09  -1.09   1.06   1.06
          1.07   2.65   2.79   2.79   4.13   4.13   4.13   4.42   5.22   5.22
          5.22   6.59   6.59   6.60   6.64   6.65   6.65   8.56   8.56   8.56
          8.60   9.35   9.35  10.59  10.59  10.60  14.42  14.42  14.42  14.97
         14.97  15.23  15.23  15.23  16.13  16.82  16.82  16.82  17.95  17.95
         17.95  18.02  18.02  18.02  19.71  19.71  19.71  20.60  20.60  23.55
         25.86  25.86  25.87  30.24  30.24  31.51  31.52  31.52  36.05  36.06
         36.06  41.81  54.51  54.51  54.53  69.22  69.22  69.32  69.37  69.37
         81.18  81.18  81.20  91.13
  10  1 -16.27 -15.09 -15.09 -15.09 -12.25 -12.25 -12.25 -10.87  -8.59  -8.58
         -8.58  -7.50  -7.50  -7.50  -6.64  -6.64  -3.96  -3.66  -3.66  -3.65
         -2.06  -2.06  -1.36  -1.35  -1.35  -0.82  -0.82  -0.81   0.58   0.58
          0.58   2.41   2.52   2.52   4.23   4.23   4.23   4.41   5.21   5.21
          5.21   6.72   6.72   6.73   6.76   6.76   6.76   8.39   8.72   8.72
          8.72   9.74   9.74  11.20  11.20  11.20  14.01  14.01  14.01  14.64
         14.64  14.80  14.81  14.81  16.30  16.69  16.69  16.70  17.59  17.59
         17.60  18.16  18.16  18.16  19.89  19.89  19.89  20.72  20.72  24.07
         25.16  25.17  25.17  30.43  30.43  31.81  31.81  31.81  33.85  33.87
         33.87  39.24  54.48  54.48  54.49  67.76  67.77  67.77  68.80  68.80
         81.17  81.17  81.19  87.98
  11  1 -16.42 -15.04 -15.04 -15.04 -12.18 -12.18 -12.18 -10.54  -8.80  -8.80
         -8.80  -7.61  -7.61  -7.61  -6.59  -6.59  -3.89  -3.78  -3.78  -3.77
         -2.06  -2.06  -0.99  -0.99  -0.99  -0.52  -0.52  -0.52   0.10   0.10
          0.10   2.13   2.29   2.29   4.34   4.34   4.34   4.45   5.20   5.20
          5.20   6.84   6.84   6.84   6.87   6.87   6.87   8.11   8.91   8.91
          8.91  10.03  10.03  11.79  11.79  11.79  13.60  13.61  13.61  14.39
         14.39  14.39  14.42  14.42  16.48  16.62  16.62  16.63  17.22  17.22
         17.22  18.29  18.29  18.29  20.12  20.12  20.12  20.81  20.81  24.47
         24.48  24.48  24.60  30.64  30.64  30.96  30.97  30.97  33.25  33.26
         33.26  37.40  54.85  54.85  54.86  65.88  65.89  65.89  68.64  68.64
         81.01  81.01  81.02  84.57
  12  1 -16.56 -14.99 -14.98 -14.98 -12.12 -12.12 -12.12 -10.20  -8.99  -8.98
         -8.98  -7.71  -7.71  -7.71  -6.53  -6.53  -3.91  -3.91  -3.90  -3.82
         -2.06  -2.06  -0.62  -0.62  -0.62  -0.36  -0.36  -0.36  -0.21  -0.21
         -0.21   1.83   2.09   2.09   4.46   4.46   4.46   4.53   5.21   5.21
          5.21   6.93   6.93   6.94   6.97   6.97   6.97   7.78   9.14   9.14
          9.14  10.17  10.17  12.32  12.32  12.32  13.22  13.22  13.22  13.97
         13.98  13.98  14.37  14.37  16.58  16.58  16.58  16.67  16.83  16.83
         16.83  18.40  18.40  18.40  20.37  20.37  20.38  20.88  20.88  23.80
         23.81  23.81  25.05  29.52  29.52  29.52  30.88  30.88  33.52  33.52
         33.52  36.29  55.49  55.49  55.50  63.50  63.51  63.51  68.87  68.87
         80.56  80.57  80.57  80.91
  13  1 -16.69 -14.93 -14.92 -14.92 -12.08 -12.08 -12.08  -9.85  -9.14  -9.14
         -9.14  -7.81  -7.81  -7.81  -6.46  -6.46  -4.03  -4.03  -4.03  -3.75
         -2.08  -2.08  -0.88  -0.88  -0.87  -0.17  -0.17  -0.17   0.12   0.12
          0.12   1.52   1.93   1.93   4.57   4.57   4.57   4.62   5.22   5.22
          5.22   7.01   7.01   7.01   7.06   7.06   7.06   7.42   9.42   9.42
          9.42  10.14  10.14  12.52  12.52  12.52  13.13  13.13  13.13  13.55
         13.56  13.56  14.51  14.51  16.45  16.45  16.45  16.60  16.60  16.60
         16.81  18.49  18.49  18.49  20.66  20.66  20.66  20.93  20.93  23.16
         23.17  23.17  25.30  28.22  28.23  28.23  31.16  31.16  33.75  33.76
         33.76  35.90  56.34  56.34  56.35  60.56  60.56  60.56  69.61  69.61
         77.09  79.84  79.84  79.85
  14  1 -16.81 -14.86 -14.85 -14.85 -12.06 -12.06 -12.06  -9.49  -9.26  -9.26
         -9.26  -7.91  -7.91  -7.91  -6.39  -6.39  -4.16  -4.16  -4.16  -3.67
         -2.12  -2.12  -1.33  -1.33  -1.33   0.24   0.24   0.24   0.47   0.47
          0.47   1.19   1.81   1.81   4.67   4.68   4.68   4.71   5.24   5.24
          5.24   7.04   7.06   7.06   7.07   7.14   7.14   7.14   9.76   9.76
          9.76   9.95   9.95  12.18  12.18  12.18  13.13  13.13  13.13  13.55
         13.55  13.55  14.83  14.83  16.09  16.09  16.09  16.64  16.64  16.64
         16.94  18.55  18.55  18.55  20.95  20.95  20.96  20.97  20.97  22.54
         22.55  22.55  25.23  27.13  27.13  27.13  31.50  31.50  33.82  33.82
         33.82  36.19  57.15  57.15  57.15  57.33  57.33  57.34  70.95  70.95
         73.33  78.89  78.89  78.89
  15  1 -16.93 -14.78 -14.78 -14.78 -12.06 -12.06 -12.06  -9.34  -9.34  -9.34
         -9.12  -8.00  -8.00  -8.00  -6.32  -6.32  -4.28  -4.28  -4.28  -3.59
         -2.18  -2.18  -1.78  -1.78  -1.78   0.67   0.67   0.67   0.83   0.83
          0.83   0.86   1.74   1.74   4.77   4.78   4.78   4.79   5.27   5.27
          5.27   6.69   7.10   7.10   7.10   7.20   7.20   7.20   9.65   9.65
         10.14  10.14  10.14  11.75  11.75  11.75  12.68  12.68  12.68  14.02
         14.02  14.03  15.27  15.27  15.77  15.77  15.77  16.71  16.71  16.72
         17.08  18.58  18.59  18.59  20.98  20.98  21.24  21.24  21.25  21.95
         21.96  21.96  24.82  26.20  26.21  26.21  31.88  31.88  33.70  33.70
         33.70  36.97  53.54  53.54  53.55  58.40  58.40  58.41  69.93  73.00
         73.00  77.78  77.79  77.79
  16  1 -17.04 -14.70 -14.69 -14.69 -12.10 -12.10 -12.10  -9.37  -9.37  -9.37
         -8.74  -8.09  -8.09  -8.09  -6.24  -6.24  -4.39  -4.39  -4.39  -3.50
         -2.25  -2.25  -2.21  -2.21  -2.21   0.52   1.09   1.10   1.10   1.20
          1.20   1.20   1.71   1.71   4.82   4.87   4.87   4.87   5.31   5.31
          5.31   6.39   7.11   7.11   7.11   7.25   7.25   7.25   9.29   9.29
         10.52  10.52  10.52  11.34  11.35  11.35  12.21  12.21  12.21  14.48
         14.48  14.48  15.50  15.50  15.50  15.78  15.78  16.80  16.80  16.80
         17.23  18.60  18.60  18.60  20.98  20.98  21.39  21.39  21.39  21.51
         21.51  21.51  24.14  25.42  25.43  25.43  32.31  32.31  33.41  33.41
         33.41  37.91  50.06  50.06  50.07  59.52  59.52  59.53  67.26  75.91
         75.91  76.59  76.60  76.60
  17  1 -17.13 -14.61 -14.60 -14.60 -12.17 -12.17 -12.17  -9.35  -9.35  -9.35
         -8.36  -8.17  -8.17  -8.17  -6.16  -6.16  -4.50  -4.50  -4.50  -3.41
         -2.63  -2.63  -2.62  -2.34  -2.34   0.17   1.52   1.52   1.52   1.57
          1.57   1.57   1.72   1.72   4.78   4.96   4.96   4.96   5.35   5.35
          5.35   6.17   7.12   7.12   7.12   7.28   7.28   7.28   8.91   8.91
         10.59  10.60  10.60  11.28  11.28  11.28  11.72  11.72  11.72  14.90
         14.90  14.90  15.29  15.29  15.29  16.32  16.32  16.90  16.90  16.90
         17.39  18.60  18.60  18.60  20.86  20.87  20.87  20.96  20.96  21.70
         21.70  21.71  23.31  24.76  24.77  24.77  32.77  32.77  33.03  33.03
         33.03  38.58  46.96  46.96  46.97  60.65  60.65  60.67  65.76  75.35
         75.36  75.36  79.83  79.83
  18  1 -17.22 -14.51 -14.50 -14.50 -12.27 -12.27 -12.27  -9.29  -9.29  -9.29
         -8.24  -8.24  -8.24  -7.98  -6.08  -6.08  -4.59  -4.59  -4.59  -3.32
         -3.02  -3.02  -3.02  -2.44  -2.44  -0.18   1.77   1.77   1.95   1.95
          1.95   1.96   1.96   1.96   4.66   5.05   5.05   5.05   5.40   5.40
          5.40   6.08   7.11   7.11   7.11   7.30   7.30   7.30   8.51   8.52
         10.22  10.22  10.22  11.20  11.20  11.20  11.69  11.69  11.69  15.14
         15.14  15.14  15.27  15.27  15.28  16.86  16.86  17.00  17.00  17.00
         17.55  18.59  18.59  18.59  20.36  20.37  20.37  20.93  20.93  21.81
         21.81  21.82  22.40  24.21  24.21  24.21  32.66  32.66  32.67  33.25
         33.25  38.67  44.36  44.36  44.36  61.77  61.77  61.78  65.77  74.11
         74.12  74.12  84.89  84.89
  19  1 -17.30 -14.40 -14.40 -14.40 -12.39 -12.39 -12.39  -9.20  -9.20  -9.20
         -8.31  -8.31  -8.30  -7.59  -5.99  -5.99  -4.68  -4.68  -4.67  -3.39
         -3.39  -3.39  -3.23  -2.55  -2.55  -0.53   1.84   1.84   2.34   2.34
          2.34   2.37   2.38   2.38   4.47   5.13   5.13   5.13   5.46   5.46
          5.46   6.08   7.10   7.10   7.10   7.30   7.30   7.30   8.13   8.13
          9.78   9.78   9.78  10.67  10.67  10.68  12.19  12.19  12.19  15.05
         15.05  15.05  15.59  15.59  15.59  17.09  17.09  17.09  17.38  17.38
         17.68  18.58  18.58  18.58  19.89  19.90  19.90  20.88  20.88  21.51
         21.80  21.80  21.81  23.73  23.74  23.74  32.43  32.43  32.44  33.72
         33.72  38.13  42.25  42.25  42.26  62.84  62.84  62.86  67.39  72.87
         72.89  72.89  91.18  91.18
  20  1 -17.37 -14.29 -14.29 -14.29 -12.53 -12.53 -12.53  -9.09  -9.09  -9.09
         -8.36  -8.36  -8.36  -7.21  -5.91  -5.91  -4.75  -4.75  -4.75  -3.74
         -3.74  -3.73  -3.15  -2.66  -2.66  -0.88   1.93   1.93   2.73   2.73
          2.73   2.78   2.78   2.78   4.29   5.22   5.22   5.22   5.52   5.52
          5.52   6.14   7.08   7.08   7.08   7.30   7.30   7.30   7.77   7.77
          9.32   9.33   9.33  10.14  10.14  10.14  12.71  12.71  12.71  15.01
         15.02  15.02  15.84  15.84  15.84  17.16  17.16  17.17  17.72  17.86
         17.86  18.55  18.55  18.55  19.46  19.47  19.47  20.74  20.81  20.81
         21.69  21.69  21.69  23.33  23.33  23.33  32.41  32.41  32.42  34.15
         34.15  37.20  40.59  40.59  40.60  63.85  63.85  63.86  70.48  71.67
         71.69  71.69  98.67  98.67
  21  1 -17.42 -14.17 -14.17 -14.17 -12.68 -12.68 -12.68  -8.96  -8.96  -8.96
         -8.41  -8.41  -8.41  -6.84  -5.84  -5.84  -4.81  -4.81  -4.81  -4.05
         -4.05  -4.05  -3.08  -2.77  -2.77  -1.21   2.04   2.04   3.10   3.10
          3.10   3.17   3.17   3.17   4.16   5.32   5.32   5.32   5.59   5.59
          5.59   6.22   7.06   7.06   7.07   7.29   7.29   7.29   7.43   7.43
          8.88   8.88   8.88   9.62   9.62   9.62  13.23  13.23  13.23  15.02
         15.02  15.02  16.02  16.02  16.02  17.21  17.21  17.21  17.58  18.30
         18.30  18.50  18.50  18.50  19.07  19.08  19.08  20.20  20.73  20.73
         21.51  21.51  21.51  22.96  22.97  22.97  32.63  32.63  32.64  34.52
         34.52  36.21  39.29  39.29  39.29  64.76  64.76  64.78  70.51  70.53
         70.53  75.00 107.17 107.17
  22  1 -17.47 -14.04 -14.04 -14.04 -12.83 -12.83 -12.83  -8.84  -8.84  -8.84
         -8.45  -8.45  -8.45  -6.48  -5.77  -5.77  -4.86  -4.86  -4.86  -4.33
         -4.33  -4.32  -3.03  -2.87  -2.87  -1.53   2.15   2.15   3.45   3.45
          3.45   3.52   3.52   3.52   4.13   5.43   5.43   5.43   5.67   5.67
          5.67   6.31   7.05   7.05   7.05   7.13   7.13   7.29   7.29   7.29
          8.44   8.44   8.44   9.11   9.11   9.11  13.75  13.75  13.75  15.06
         15.06  15.06  16.15  16.15  16.15  17.20  17.21  17.21  17.23  18.41
         18.41  18.41  18.70  18.70  18.73  18.74  18.74  19.96  20.62  20.62
         21.36  21.36  21.36  22.64  22.64  22.64  33.05  33.05  33.07  34.84
         34.84  35.40  38.26  38.26  38.26  65.56  65.56  65.57  69.43  69.45
         69.45  81.36 116.18 116.18
  23  1 -17.50 -13.91 -13.90 -13.90 -12.99 -12.99 -12.99  -8.72  -8.72  -8.72
         -8.48  -8.48  -8.48  -6.16  -5.71  -5.71  -4.90  -4.90  -4.90  -4.56
         -4.56  -4.56  -3.01  -2.95  -2.95  -1.80   2.26   2.26   3.76   3.76
          3.76   3.82   3.83   3.83   4.25   5.56   5.56   5.56   5.75   5.75
          5.75   6.39   6.88   6.88   7.04   7.04   7.04   7.29   7.29   7.29
          8.03   8.03   8.03   8.63   8.63   8.64  14.25  14.25  14.25  15.12
         15.12  15.12  16.23  16.23  16.23  16.77  17.13  17.13  17.13  18.28
         18.28  18.28  18.44  18.45  18.45  19.06  19.06  19.93  20.49  20.49
         21.29  21.30  21.30  22.35  22.35  22.35  33.62  33.62  33.63  34.94
         35.08  35.08  37.42  37.42  37.43  66.21  66.21  66.23  68.48  68.51
         68.51  90.79 124.94 124.94
  24  1 -17.52 -13.77 -13.76 -13.76 -13.15 -13.15 -13.15  -8.62  -8.62  -8.62
         -8.50  -8.50  -8.50  -5.89  -5.66  -5.66  -4.93  -4.93  -4.92  -4.74
         -4.74  -4.73  -3.02  -3.02  -3.02  -2.00   2.35   2.35   4.01   4.01
          4.01   4.05   4.05   4.05   4.51   5.72   5.72   5.72   5.84   5.84
          5.84   6.46   6.69   6.69   7.04   7.04   7.04   7.33   7.33   7.33
          7.65   7.65   7.65   8.21   8.21   8.21  14.71  14.71  14.71  15.18
         15.18  15.18  16.29  16.29  16.29  16.37  16.96  16.96  16.97  18.14
         18.14  18.14  18.22  18.23  18.23  19.37  19.37  19.97  20.34  20.34
         21.33  21.33  21.33  22.08  22.08  22.08  34.25  34.25  34.27  34.89
         35.26  35.26  36.73  36.73  36.73  66.69  66.69  66.71  67.73  67.76
         67.76 105.74 132.39 132.39
  25  1 -17.53 -13.62 -13.62 -13.62 -13.31 -13.31 -13.31  -8.55  -8.55  -8.55
         -8.52  -8.52  -8.52  -5.70  -5.63  -5.63  -4.94  -4.94  -4.93  -4.86
         -4.86  -4.85  -3.06  -3.06  -3.06  -2.12   2.41   2.41   4.17   4.17
          4.17   4.19   4.20   4.20   4.84   5.86   5.86   5.87   5.91   5.91
          5.91   6.52   6.58   6.58   7.06   7.06   7.06   7.34   7.35   7.35
          7.42   7.42   7.42   7.85   7.85   7.85  15.07  15.07  15.08  15.22
         15.23  15.23  16.09  16.36  16.36  16.36  16.72  16.72  16.72  18.06
         18.06  18.06  18.07  18.09  18.09  19.64  19.64  20.02  20.18  20.18
         21.45  21.45  21.45  21.84  21.84  21.84  34.89  34.89  34.90  35.12
         35.36  35.36  36.11  36.11  36.12  66.98  66.98  67.01  67.24  67.28
         67.28 126.97 137.44 137.44
  26  1 -17.53 -13.48 -13.47 -13.47 -13.46 -13.46 -13.46  -8.53  -8.53  -8.53
         -8.52  -8.52  -8.52  -5.63  -5.62  -5.62  -4.93  -4.93  -4.93  -4.91
         -4.91  -4.90  -3.08  -3.07  -3.07  -2.16   2.43   2.43   4.23   4.23
          4.23   4.24   4.24   4.24   5.00   5.92   5.92   5.93   5.94   5.95
          5.95   6.54   6.54   6.54   7.14   7.14   7.14   7.15   7.15   7.15
          7.58   7.58   7.58   7.59   7.59   7.59  15.22  15.22  15.23  15.24
         15.25  15.25  16.00  16.48  16.48  16.48  16.50  16.50  16.51  18.02
         18.02  18.02  18.03  18.04  18.04  19.78  19.78  20.04  20.07  20.07
         21.61  21.62  21.62  21.64  21.64  21.64  35.26  35.40  35.40  35.48
         35.49  35.49  35.53  35.53  35.56  67.02  67.02  67.07  67.11  67.17
         67.17 139.23 139.23 140.17
  27  1 -17.53 -13.72 -13.47 -13.47 -13.46 -13.46 -13.21  -8.55  -8.55  -8.54
         -8.53  -8.53  -8.52  -5.67  -5.65  -5.64  -4.98  -4.90  -4.90  -4.88
         -4.88  -4.84  -3.09  -3.05  -3.04  -2.12   2.38   2.43   4.16   4.17
          4.19   4.20   4.21   4.21   4.85   5.83   5.83   5.84   5.85   6.01
          6.01   6.54   6.54   6.58   6.90   7.21   7.21   7.22   7.22   7.23
          7.36   7.65   7.65   7.66   7.66   7.96  15.13  15.14  15.16  15.16
         15.18  15.18  16.09  16.16  16.56  16.56  16.57  16.58  16.79  18.02
         18.02  18.03  18.03  18.14  18.14  19.60  19.75  20.00  20.03  20.28
         21.35  21.62  21.62  21.64  21.64  21.99  34.54  35.04  35.14  35.45
         35.45  35.50  35.51  35.65  36.58  66.99  67.01  67.13  67.16  67.23
         67.23 131.55 135.00 135.60
  28  1 -17.52 -13.97 -13.47 -13.47 -13.46 -13.46 -12.94  -8.59  -8.59  -8.58
         -8.58  -8.51  -8.50  -5.77  -5.72  -5.71  -5.02  -4.82  -4.82  -4.80
         -4.80  -4.76  -3.12  -2.97  -2.96  -2.02   2.26   2.45   3.99   3.99
          4.08   4.08   4.09   4.09   4.52   5.62   5.62   5.64   5.64   6.20
          6.20   6.55   6.55   6.64   6.72   6.88   7.30   7.31   7.31   7.31
          7.55   7.90   7.90   7.92   7.92   8.34  14.87  14.88  14.98  14.98
         15.01  15.01  15.81  16.35  16.74  16.75  16.76  16.76  17.04  18.01
         18.01  18.02  18.03  18.44  18.44  19.35  19.65  19.87  19.89  20.62
         21.19  21.63  21.64  21.65  21.65  22.42  33.66  34.33  34.42  35.37
         35.38  35.43  35.44  36.56  37.75  66.80  66.82  67.37  67.39  67.46
         67.47 115.53 124.64 125.10
  29  1 -17.50 -14.21 -13.46 -13.46 -13.45 -13.45 -12.67  -8.66  -8.66  -8.65
         -8.65  -8.49  -8.48  -5.93  -5.82  -5.81  -5.05  -4.69  -4.69  -4.68
         -4.67  -4.66  -3.18  -2.84  -2.83  -1.88   2.08   2.48   3.74   3.75
          3.87   3.87   3.89   3.89   4.20   5.43   5.43   5.45   5.45   6.35
          6.45   6.45   6.55   6.57   6.57   6.92   7.35   7.35   7.36   7.36
          7.71   8.29   8.30   8.31   8.31   8.74  14.52  14.53  14.76  14.76
         14.79  14.79  15.45  16.76  16.98  16.99  17.00  17.01  17.22  17.99
         17.99  18.00  18.00  18.85  18.85  19.11  19.49  19.64  19.66  20.97
         21.18  21.66  21.66  21.67  21.67  22.90  32.85  33.27  33.35  35.33
         35.33  35.39  35.40  38.25  39.05  66.48  66.50  67.75  67.77  67.84
         67.85 100.80 112.62 112.95
  30  1 -17.48 -14.44 -13.45 -13.45 -13.44 -13.44 -12.40  -8.74  -8.74  -8.73
         -8.73  -8.46  -8.45  -6.13  -5.94  -5.94  -5.07  -4.56  -4.52  -4.52
         -4.50  -4.50  -3.26  -2.68  -2.67  -1.70   1.86   2.51   3.47   3.47
          3.58   3.58   3.60   3.60   4.01   5.29   5.30   5.31   5.31   6.05
          6.24   6.60   6.61   6.75   6.75   7.18   7.38   7.38   7.38   7.38
          7.82   8.75   8.75   8.77   8.77   9.16  14.13  14.14  14.53  14.53
         14.55  14.55  15.08  17.24  17.25  17.26  17.26  17.29  17.32  17.94
         17.94  17.95  17.96  18.88  19.26  19.31  19.32  19.33  19.35  21.30
         21.36  21.70  21.70  21.71  21.71  23.41  32.03  32.10  32.12  35.44
         35.44  35.51  35.52  40.49  41.00  66.08  66.10  68.25  68.27  68.34
         68.35  89.44 101.94 102.17
  31  1 -17.44 -14.67 -13.44 -13.44 -13.43 -13.43 -12.12  -8.84  -8.84  -8.83
         -8.83  -8.42  -8.41  -6.36  -6.09  -6.08  -5.08  -4.44  -4.31  -4.31
         -4.29  -4.29  -3.36  -2.48  -2.48  -1.53   1.63   2.56   3.17   3.17
          3.22   3.22   3.24   3.24   3.94   5.21   5.21   5.22   5.23   5.74
          5.94   6.66   6.66   7.06   7.07   7.40   7.40   7.41   7.41   7.47
          7.89   9.24   9.24   9.26   9.26   9.58  13.73  13.74  14.30  14.30
         14.32  14.32  14.70  17.33  17.50  17.50  17.52  17.52  17.86  17.86
         17.88  17.88  17.91  18.66  18.88  18.89  18.99  19.84  19.85  21.62
         21.72  21.74  21.75  21.75  21.75  23.93  30.78  30.85  31.45  35.82
         35.83  35.90  35.91  42.10  45.18  65.65  65.67  68.85  68.86  68.93
         68.94  80.64  93.53  93.70
  32  1 -17.39 -14.89 -13.42 -13.42 -13.41 -13.41 -11.84  -8.94  -8.94  -8.94
         -8.94  -8.37  -8.36  -6.62  -6.24  -6.23  -5.07  -4.30  -4.07  -4.06
         -4.05  -4.05  -3.46  -2.27  -2.26  -1.37   1.42   2.63   2.82   2.83
          2.84   2.85   2.87   2.87   3.99   5.16   5.16   5.17   5.18   5.41
          5.65   6.74   6.74   7.38   7.39   7.42   7.42   7.43   7.43   7.78
          7.92   9.74   9.74   9.76   9.76  10.03  13.33  13.34  14.07  14.07
         14.10  14.10  14.31  17.29  17.62  17.62  17.64  17.64  17.86  17.87
         17.89  17.90  18.34  18.35  18.45  18.54  18.65  20.38  20.40  21.78
         21.78  21.79  21.79  21.94  22.27  24.46  29.65  29.72  30.85  36.62
         36.62  36.70  36.72  43.90  51.20  65.22  65.24  69.55  69.57  69.63
         69.64  73.43  87.22  87.35
  33  1 -17.32 -15.10 -13.41 -13.41 -13.40 -13.39 -11.55  -9.05  -9.05  -9.04
         -9.04  -8.31  -8.30  -6.89  -6.40  -6.39  -5.05  -4.15  -3.80  -3.79
         -3.78  -3.78  -3.58  -2.03  -2.03  -1.26   1.25   2.40   2.41   2.43
          2.43   2.56   2.56   2.70   4.13   5.07   5.13   5.13   5.15   5.15
          5.37   6.84   6.84   7.44   7.44   7.45   7.45   7.70   7.71   7.91
          8.11  10.25  10.25  10.27  10.27  10.48  12.96  12.97  13.87  13.87
         13.89  13.89  13.92  17.22  17.47  17.47  17.49  17.49  17.73  17.74
         18.10  18.10  18.13  18.13  18.25  18.28  19.18  20.93  20.95  21.79
         21.80  21.80  21.81  22.26  22.96  24.96  28.71  28.77  30.31  37.95
         37.95  38.04  38.05  45.93  59.18  64.85  64.87  67.24  70.38  70.39
         70.46  70.46  82.52  82.62
  34  1 -17.25 -15.31 -13.39 -13.39 -13.38 -13.38 -11.26  -9.15  -9.15  -9.14
         -9.14  -8.25  -8.24  -7.17  -6.56  -6.55  -5.02  -3.98  -3.70  -3.50
         -3.50  -3.49  -3.49  -1.78  -1.78  -1.21   1.14   1.97   1.98   2.00
          2.00   2.25   2.25   2.78   4.32   4.73   5.11   5.12   5.12   5.14
          5.14   6.96   6.96   7.46   7.46   7.47   7.47   7.84   8.01   8.01
          8.45  10.75  10.75  10.77  10.78  10.95  12.63  12.63  13.53  13.68
         13.68  13.70  13.70  17.07  17.08  17.14  17.23  17.23  17.26  17.26
         17.86  18.06  18.37  18.37  18.40  18.40  19.81  21.49  21.51  21.77
         21.77  21.78  21.79  22.59  23.78  25.43  27.95  28.00  29.86  39.87
         39.88  39.98  39.99  48.20  61.76  64.57  64.59  68.37  71.38  71.39
         71.45  71.45  78.96  79.03
  35  1 -17.17 -15.50 -13.37 -13.37 -13.36 -13.36 -10.97  -9.25  -9.25  -9.24
         -9.24  -8.17  -8.16  -7.46  -6.72  -6.71  -4.98  -3.83  -3.80  -3.19
         -3.19  -3.17  -3.17  -1.52  -1.52  -1.26   1.13   1.54   1.54   1.56
          1.56   1.94   1.94   2.88   4.38   4.57   4.86   5.12   5.12   5.13
          5.13   7.11   7.11   7.48   7.48   7.49   7.49   7.73   8.28   8.28
          8.78  11.25  11.25  11.27  11.27  11.43  12.35  12.36  13.13  13.52
         13.52  13.54  13.54  16.39  16.40  16.95  16.95  16.98  16.98  17.08
         17.41  17.89  18.65  18.65  18.67  18.68  20.47  21.70  21.70  21.72
         21.72  22.04  22.06  22.93  24.65  25.83  27.34  27.39  29.55  42.39
         42.39  42.51  42.52  50.72  56.84  64.42  64.44  72.61  72.62  72.67
         72.67  76.18  76.24  76.72
  36  1 -17.08 -15.69 -13.36 -13.36 -13.35 -13.35 -10.67  -9.33  -9.33  -9.32
         -9.32  -8.09  -8.08  -7.76  -6.88  -6.87  -4.93  -3.96  -3.61  -2.86
         -2.86  -2.84  -2.84  -1.38  -1.25  -1.25   1.10   1.10   1.13   1.13
          1.20   1.63   1.63   2.98   4.03   4.63   4.84   5.12   5.12   5.13
          5.13   7.28   7.29   7.50   7.50   7.51   7.51   7.58   8.49   8.50
          9.12  11.72  11.72  11.74  11.74  11.92  12.16  12.16  12.73  13.40
         13.40  13.42  13.42  15.72  15.73  16.63  16.63  16.66  16.66  16.94
         17.04  17.74  18.93  18.94  18.96  18.96  21.17  21.59  21.59  21.61
         21.61  22.58  22.60  23.28  25.46  26.14  26.84  26.89  29.51  45.35
         45.36  45.47  45.48  52.39  53.47  64.43  64.44  73.89  73.94  74.13
         74.15  74.19  74.21  81.67
  37  1 -16.97 -15.87 -13.34 -13.34 -13.33 -13.33 -10.38  -9.40  -9.40  -9.40
         -9.40  -8.05  -7.99  -7.99  -7.03  -7.02  -4.87  -4.08  -3.40  -2.52
         -2.51  -2.50  -2.50  -1.57  -0.98  -0.97   0.67   0.67   0.69   0.70
          1.32   1.32   1.35   3.10   3.68   4.40   5.12   5.12   5.13   5.13
          5.14   7.38   7.47   7.48   7.51   7.52   7.52   7.53   8.62   8.63
          9.46  12.08  12.08  12.14  12.14  12.16  12.16  12.34  12.43  13.34
         13.34  13.35  13.36  15.07  15.08  16.28  16.28  16.31  16.31  16.45
         17.02  17.59  19.23  19.23  19.26  19.26  21.43  21.44  21.45  21.45
         21.96  23.10  23.13  23.65  25.96  26.32  26.40  26.45  29.96  48.39
         48.46  48.47  48.58  48.59  56.39  64.61  64.61  72.07  72.11  75.90
         75.91  75.93  75.93  82.27
  38  1 -16.86 -16.05 -13.33 -13.33 -13.32 -13.32 -10.08  -9.46  -9.46  -9.46
         -9.46  -8.35  -7.89  -7.88  -7.18  -7.17  -4.79  -4.21  -3.18  -2.16
         -2.16  -2.14  -2.14  -1.79  -0.69  -0.69   0.25   0.25   0.27   0.27
          1.01   1.02   1.56   3.23   3.33   4.19   5.12   5.12   5.13   5.14
          5.46   7.15   7.53   7.53   7.54   7.54   7.68   7.69   8.66   8.67
          9.80  11.94  12.13  12.14  12.46  12.46  12.47  12.47  12.94  13.39
         13.39  13.39  13.40  14.46  14.46  15.92  15.92  15.93  15.95  15.96
         17.03  17.47  19.53  19.54  19.56  19.56  21.24  21.25  21.26  21.26
         22.81  23.60  23.64  24.04  26.01  26.04  26.06  26.33  31.05  44.80
         51.31  51.31  51.41  51.42  59.44  64.97  64.97  70.47  70.50  77.80
         77.81  77.82  77.83  79.72
  39  1 -16.74 -16.21 -13.32 -13.32 -13.31 -13.31  -9.78  -9.50  -9.50  -9.50
         -9.50  -8.65  -7.79  -7.78  -7.32  -7.31  -4.71  -4.33  -2.95  -2.03
         -1.80  -1.80  -1.79  -1.78  -0.40  -0.40  -0.15  -0.15  -0.13  -0.13
          0.71   0.71   1.81   2.98   3.37   4.00   5.12   5.12   5.14   5.14
          5.77   6.89   7.54   7.54   7.55   7.55   7.90   7.91   8.60   8.60
         10.16  11.55  12.32  12.33  12.62  12.62  12.63  12.63  13.46  13.56
         13.57  13.58  13.58  13.89  13.89  15.41  15.58  15.58  15.60  15.61
         17.06  17.35  19.83  19.84  19.86  19.86  21.02  21.02  21.04  21.04
         23.71  24.08  24.12  24.44  25.62  25.67  25.84  26.14  32.64  41.59
         53.52  53.52  53.60  53.61  62.56  65.51  65.51  69.09  69.12  75.84
         79.50  79.51  79.53  79.54
  40  1 -16.61 -16.36 -13.32 -13.32 -13.31 -13.31  -9.53  -9.53  -9.52  -9.52
         -9.47  -8.96  -7.67  -7.66  -7.45  -7.44  -4.62  -4.44  -2.71  -2.28
         -1.47  -1.47  -1.45  -1.45  -0.51  -0.51  -0.49  -0.49  -0.11  -0.11
          0.40   0.41   2.10   2.65   3.52   3.81   5.12   5.13   5.14   5.14
          6.09   6.61   7.54   7.55   7.56   7.56   8.12   8.13   8.46   8.47
         10.52  11.16  12.63  12.64  12.67  12.67  12.68  12.68  13.37  13.37
         13.79  13.79  13.81  13.81  13.98  14.88  15.30  15.30  15.32  15.32
[...]
         73.21  86.37  88.82  91.06
  93  1 -16.53 -15.85 -14.69 -14.34 -12.49 -12.09 -10.66  -9.92  -9.67  -9.60
         -8.55  -8.31  -8.09  -7.84  -7.59  -6.65  -3.52  -3.50  -3.03  -2.39
         -2.17  -1.88  -1.87  -1.08  -1.05  -0.88  -0.65  -0.54   0.43   0.45
          1.10   1.88   1.90   1.93   2.53   3.44   3.90   3.93   4.56   5.54
          5.64   5.65   7.46   7.79   8.17   8.43   8.87   9.22   9.42  10.08
         10.38  10.94  11.01  11.26  11.40  11.71  11.98  12.36  12.93  13.27
         14.03  14.22  14.47  14.54  14.63  15.64  16.11  16.33  16.37  17.08
         17.65  17.76  18.68  18.83  19.39  20.72  21.80  22.16  23.13  23.31
         23.68  23.90  24.67  25.05  26.31  26.49  32.66  37.24  38.65  40.57
         43.73  53.48  53.70  56.73  57.99  63.80  65.87  67.36  68.03  69.03
         73.29  86.40  88.88  91.05
  94  1 -16.32 -15.68 -14.76 -14.76 -12.41 -12.41 -11.36 -10.56  -9.16  -9.16
         -8.12  -7.82  -7.82  -7.50  -6.98  -6.95  -3.63  -3.41  -3.27  -3.26
         -2.31  -1.69  -1.69  -1.50  -1.41  -0.69  -0.54   0.30   0.31   0.44
          0.68   0.68   2.72   2.73   3.19   3.23   4.76   4.88   5.04   5.29
          5.38   5.38   6.41   6.41   7.21   8.09   8.72   9.10   9.10   9.12
          9.27   9.28  11.05  11.36  11.37  11.74  13.01  13.26  13.45  13.46
         13.55  14.67  14.97  14.97  16.15  16.15  16.57  16.66  17.17  17.42
         17.42  17.82  17.82  19.19  19.21  19.22  20.81  22.15  22.29  23.84
         24.45  24.45  25.26  27.22  27.94  27.94  32.50  33.33  36.19  36.19
         41.46  49.37  55.72  55.73  56.85  61.93  64.02  68.75  68.86  68.88
         81.92  86.50  86.52  94.53
  95  1 -15.92 -15.36 -15.36 -15.00 -12.44 -12.04 -12.04 -11.41  -8.69  -8.25
         -8.25  -7.53  -7.27  -7.23  -7.23  -6.66  -3.52  -3.47  -3.10  -3.10
         -2.39  -2.39  -2.02  -1.98  -1.56  -1.18  -1.05  -1.05   1.19   1.20
          2.00   2.20   2.38   3.04   3.43   3.87   3.87   4.24   4.24   4.48
          5.08   6.92   6.92   7.10   7.10   7.62   7.95   8.59   8.76   8.76
          8.87   9.18   9.25  10.04  10.46  10.46  13.78  14.04  14.04  15.03
         15.03  15.09  15.53  15.76  15.82  15.93  16.54  16.54  17.69  18.35
         18.37  18.37  19.00  19.00  19.33  19.81  20.51  20.51  21.19  21.82
         26.82  27.06  27.06  28.76  28.92  32.38  32.38  34.43  39.65  41.21
         41.22  48.05  55.28  55.32  57.71  58.95  64.91  76.96  76.97  81.07
         81.34  81.34  90.14  91.34
  96  1 -15.92 -15.37 -15.36 -15.00 -12.44 -12.05 -12.04 -11.40  -8.68  -8.26
         -8.25  -7.53  -7.27  -7.24  -7.22  -6.67  -3.54  -3.48  -3.10  -3.09
         -2.39  -2.38  -2.02  -1.99  -1.56  -1.18  -1.05  -1.04   1.20   1.22
          2.00   2.20   2.40   3.02   3.42   3.85   3.87   4.22   4.24   4.48
          5.10   6.89   6.92   7.07   7.08   7.62   7.97   8.57   8.75   8.76
          8.87   9.19   9.28  10.05  10.47  10.49  13.79  14.03  14.04  15.01
         15.04  15.09  15.54  15.79  15.83  15.93  16.49  16.52  17.69  18.35
         18.37  18.40  18.98  19.00  19.33  19.80  20.49  20.51  21.18  21.85
         26.80  27.04  27.09  28.74  28.92  32.36  32.37  34.42  39.61  41.17
         41.26  48.02  55.25  55.47  57.61  58.92  64.73  76.85  76.88  81.13
         81.32  81.36  90.19  90.81
  97  1 -15.92 -15.36 -15.36 -15.00 -12.45 -12.04 -12.04 -11.40  -8.68  -8.25
         -8.25  -7.54  -7.26  -7.24  -7.23  -6.66  -3.53  -3.47  -3.10  -3.10
         -2.39  -2.39  -2.02  -1.99  -1.55  -1.17  -1.04  -1.04   1.22   1.22
          2.01   2.21   2.39   3.02   3.42   3.85   3.86   4.23   4.23   4.47
          5.07   6.90   6.90   7.10   7.10   7.63   7.95   8.57   8.74   8.75
          8.87   9.20   9.26  10.06  10.50  10.50  13.80  14.05  14.05  15.04
         15.05  15.08  15.54  15.77  15.81  15.92  16.50  16.51  17.67  18.34
         18.37  18.38  19.00  19.00  19.33  19.81  20.50  20.50  21.18  21.84
         26.83  27.05  27.05  28.72  28.94  32.34  32.35  34.42  39.65  41.17
         41.18  48.10  55.14  55.17  57.67  58.97  64.81  76.88  76.88  81.03
         81.28  81.31  90.20  91.03
  98  1 -16.10 -15.47 -15.47 -14.94 -11.99 -11.36 -11.35 -10.55  -9.70  -9.20
         -9.20  -8.59  -7.39  -7.33  -7.33  -6.60  -3.62  -2.91  -2.69  -2.69
         -2.02  -2.02  -1.62  -1.43  -0.32  -0.32  -0.28  -0.14   0.22   0.22
          0.52   0.99   1.53   1.93   2.29   2.55   2.55   4.07   4.07   5.13
          5.70   7.64   7.64   7.94   8.51   8.51   9.30   9.52   9.75   9.84
          9.84  10.55  11.06  11.63  11.63  12.03  12.64  12.82  12.90  12.90
         13.50  13.71  13.71  14.43  14.93  15.18  15.18  15.43  17.51  18.33
         18.34  19.17  19.96  19.96  20.36  20.43  21.65  21.65  21.86  22.39
         25.30  25.92  26.09  26.09  27.82  35.83  35.84  40.90  44.27  44.28
         50.77  51.71  53.88  53.89  59.50  61.21  62.84  69.88  69.91  81.21
         81.22  82.45  84.81  87.60
  99  1 -16.10 -15.47 -15.47 -14.94 -11.99 -11.36 -11.36 -10.56  -9.70  -9.20
         -9.20  -8.58  -7.39  -7.33  -7.33  -6.59  -3.62  -2.90  -2.69  -2.69
         -2.01  -2.01  -1.61  -1.42  -0.34  -0.34  -0.29  -0.15   0.21   0.21
          0.51   0.98   1.55   1.94   2.29   2.57   2.57   4.07   4.07   5.14
          5.71   7.64   7.64   7.95   8.52   8.52   9.30   9.51   9.73   9.86
          9.86  10.56  11.08  11.61  11.62  12.01  12.64  12.81  12.87  12.87
         13.48  13.70  13.70  14.43  14.94  15.21  15.21  15.44  17.51  18.33
         18.34  19.18  19.96  19.96  20.37  20.43  21.66  21.66  21.86  22.37
         25.29  25.91  26.09  26.09  27.84  35.84  35.85  40.91  44.34  44.36
         50.79  51.75  53.86  53.87  59.56  61.09  62.89  70.07  70.08  81.22
         81.24  82.46  84.77  87.57
 100  1 -15.92 -15.36 -15.36 -15.00 -12.44 -12.04 -12.04 -11.41  -8.69  -8.25
         -8.25  -7.53  -7.27  -7.23  -7.23  -6.66  -3.52  -3.47  -3.10  -3.10
         -2.39  -2.39  -2.02  -1.98  -1.56  -1.18  -1.05  -1.05   1.19   1.20
          2.00   2.20   2.38   3.04   3.43   3.87   3.87   4.24   4.24   4.48
          5.08   6.92   6.92   7.10   7.10   7.62   7.95   8.59   8.76   8.76
          8.87   9.18   9.25  10.04  10.46  10.46  13.78  14.04  14.04  15.03
         15.03  15.09  15.53  15.76  15.82  15.93  16.54  16.54  17.69  18.35
         18.37  18.37  19.00  19.00  19.33  19.81  20.51  20.51  21.19  21.82
         26.82  27.06  27.06  28.76  28.92  32.38  32.38  34.43  39.65  41.21
         41.22  48.05  55.28  55.32  57.71  58.95  64.91  76.96  76.97  81.07
         81.34  81.34  90.14  91.34
 101  1 -15.60 -15.23 -15.23 -15.23 -12.54 -12.54 -12.54 -12.15  -7.48  -7.47
         -7.47  -7.05  -7.05  -7.05  -6.82  -6.82  -4.16  -3.69  -3.69  -3.69
         -2.30  -2.30  -2.30  -2.16  -2.16  -1.87  -1.87  -1.87   2.68   2.68
          2.69   3.11   3.98   3.98   4.03   4.03   4.03   4.98   5.33   5.33
          5.33   6.09   6.09   6.09   6.23   6.24   6.24   7.65   7.65   7.85
          7.85   7.85   8.61   8.62   8.62   8.68  15.93  15.93  15.93  15.97
         16.44  16.44  16.68  16.69  16.69  17.36  17.36  17.36  18.14  18.14
         18.14  18.95  18.95  18.95  19.40  19.40  19.40  20.01  20.01  21.83
         28.23  28.23  28.23  29.68  29.68  29.86  29.86  29.86  51.09  51.11
         51.11  57.17  60.20  60.20  60.26  71.90  71.90  71.95  71.98  71.98
         88.46  88.47  88.47 102.44
 102  1 -15.59 -15.25 -15.23 -15.22 -12.55 -12.54 -12.54 -12.14  -7.48  -7.47
         -7.46  -7.06  -7.06  -7.05  -6.83  -6.82  -4.17  -3.69  -3.69  -3.68
         -2.30  -2.30  -2.29  -2.16  -2.16  -1.87  -1.87  -1.86   2.69   2.70
          2.71   3.09   3.98   3.99   4.02   4.03   4.04   4.99   5.31   5.31
          5.31   6.07   6.08   6.09   6.21   6.22   6.23   7.65   7.67   7.84
          7.86   7.87   8.62   8.64   8.64   8.69  15.91  15.93  15.93  15.99
         16.44  16.46  16.68  16.70  16.71  17.33  17.34  17.35  18.10  18.13
         18.13  18.95  18.95  18.96  19.38  19.39  19.41  19.99  20.00  21.88
         28.20  28.20  28.24  29.65  29.68  29.85  29.87  29.89  51.05  51.07
         51.23  57.17  60.05  60.07  60.38  71.29  71.57  71.96  72.10  72.12
         88.32  88.39  88.45 102.29
 103  1 -15.92 -15.37 -15.36 -15.00 -12.44 -12.05 -12.04 -11.40  -8.68  -8.26
         -8.25  -7.53  -7.27  -7.24  -7.22  -6.67  -3.54  -3.48  -3.10  -3.09
         -2.39  -2.38  -2.02  -1.99  -1.56  -1.18  -1.05  -1.04   1.20   1.22
          2.00   2.20   2.40   3.02   3.42   3.85   3.87   4.22   4.24   4.48
          5.10   6.89   6.92   7.07   7.08   7.62   7.97   8.57   8.75   8.76
          8.87   9.19   9.28  10.05  10.47  10.49  13.79  14.03  14.04  15.01
         15.04  15.09  15.54  15.79  15.83  15.93  16.49  16.52  17.69  18.35
         18.37  18.40  18.98  19.00  19.33  19.80  20.49  20.51  21.18  21.85
         26.80  27.04  27.09  28.74  28.92  32.36  32.37  34.42  39.61  41.17
         41.26  48.02  55.25  55.47  57.61  58.92  64.73  76.85  76.88  81.13
         81.32  81.36  90.19  90.81
 104  1 -16.10 -15.48 -15.46 -14.93 -11.99 -11.36 -11.35 -10.55  -9.70  -9.20
         -9.19  -8.58  -7.40  -7.34  -7.31  -6.60  -3.63  -2.92  -2.69  -2.67
         -2.02  -2.01  -1.62  -1.43  -0.33  -0.32  -0.29  -0.15   0.22   0.23
          0.50   0.98   1.53   1.92   2.31   2.56   2.58   4.05   4.06   5.15
          5.73   7.61   7.62   7.94   8.51   8.53   9.31   9.51   9.74   9.84
          9.86  10.56  11.07  11.61  11.62  12.02  12.65  12.81  12.88  12.89
         13.50  13.68  13.70  14.46  14.94  15.16  15.20  15.45  17.53  18.33
         18.36  19.16  19.95  19.96  20.36  20.43  21.65  21.67  21.85  22.39
         25.27  25.90  26.09  26.11  27.83  35.83  35.87  40.87  44.30  44.37
         50.64  51.77  53.95  54.07  59.53  61.21  62.73  69.87  69.98  81.13
         81.22  82.51  84.82  87.62
 105  1 -16.10 -15.48 -15.46 -14.93 -11.99 -11.36 -11.35 -10.55  -9.70  -9.20
         -9.19  -8.58  -7.40  -7.34  -7.31  -6.60  -3.63  -2.92  -2.69  -2.67
         -2.02  -2.01  -1.62  -1.43  -0.33  -0.32  -0.29  -0.15   0.22   0.23
          0.50   0.98   1.53   1.92   2.31   2.56   2.58   4.05   4.06   5.15
          5.73   7.61   7.62   7.94   8.51   8.53   9.31   9.51   9.74   9.84
          9.86  10.56  11.07  11.61  11.62  12.02  12.65  12.81  12.88  12.89
         13.50  13.68  13.70  14.46  14.94  15.16  15.20  15.45  17.53  18.33
         18.36  19.16  19.95  19.96  20.36  20.43  21.65  21.67  21.85  22.39
         25.27  25.90  26.09  26.11  27.83  35.83  35.87  40.87  44.30  44.37
         50.64  51.77  53.95  54.07  59.53  61.21  62.73  69.87  69.98  81.13
         81.22  82.51  84.82  87.62
 106  1 -15.92 -15.37 -15.36 -15.00 -12.44 -12.05 -12.04 -11.40  -8.68  -8.26
         -8.25  -7.53  -7.27  -7.24  -7.22  -6.67  -3.54  -3.48  -3.10  -3.09
         -2.39  -2.38  -2.02  -1.99  -1.56  -1.18  -1.05  -1.04   1.20   1.22
          2.00   2.20   2.40   3.02   3.42   3.85   3.87   4.22   4.24   4.48
          5.10   6.89   6.92   7.07   7.08   7.62   7.97   8.57   8.75   8.76
          8.87   9.19   9.28  10.05  10.47  10.49  13.79  14.03  14.04  15.01
         15.04  15.09  15.54  15.79  15.83  15.93  16.49  16.52  17.69  18.35
         18.37  18.40  18.98  19.00  19.33  19.80  20.49  20.51  21.18  21.85
         26.80  27.04  27.09  28.74  28.92  32.36  32.37  34.42  39.61  41.17
         41.26  48.02  55.25  55.47  57.61  58.92  64.73  76.85  76.88  81.13
         81.32  81.36  90.19  90.81
 107  1 -15.59 -15.25 -15.23 -15.22 -12.55 -12.54 -12.54 -12.14  -7.48  -7.47
         -7.46  -7.06  -7.06  -7.05  -6.83  -6.82  -4.17  -3.69  -3.69  -3.68
         -2.30  -2.30  -2.29  -2.16  -2.16  -1.87  -1.87  -1.86   2.69   2.70
          2.71   3.09   3.98   3.99   4.02   4.03   4.04   4.99   5.31   5.31
          5.31   6.07   6.08   6.09   6.21   6.22   6.23   7.65   7.67   7.84
          7.86   7.87   8.62   8.64   8.64   8.69  15.91  15.93  15.93  15.99
         16.44  16.46  16.68  16.70  16.71  17.33  17.34  17.35  18.10  18.13
         18.13  18.95  18.95  18.96  19.38  19.39  19.41  19.99  20.00  21.88
         28.20  28.20  28.24  29.65  29.68  29.85  29.87  29.89  51.05  51.07
         51.23  57.17  60.05  60.07  60.38  71.29  71.57  71.96  72.10  72.12
         88.32  88.39  88.45 102.29
 108  1 -15.59 -15.25 -15.23 -15.22 -12.55 -12.54 -12.54 -12.14  -7.48  -7.47
         -7.46  -7.06  -7.06  -7.05  -6.83  -6.82  -4.17  -3.69  -3.69  -3.68
         -2.30  -2.30  -2.29  -2.16  -2.16  -1.87  -1.87  -1.86   2.69   2.70
          2.71   3.09   3.98   3.99   4.02   4.03   4.04   4.99   5.31   5.31
          5.31   6.07   6.08   6.09   6.21   6.22   6.23   7.65   7.67   7.84
          7.86   7.87   8.62   8.64   8.64   8.69  15.91  15.93  15.93  15.99
         16.44  16.46  16.68  16.70  16.71  17.33  17.34  17.35  18.10  18.13
         18.13  18.95  18.95  18.96  19.38  19.39  19.41  19.99  20.00  21.88
         28.20  28.20  28.24  29.65  29.68  29.85  29.87  29.89  51.05  51.07
         51.23  57.17  60.05  60.07  60.38  71.29  71.57  71.96  72.10  72.12
         88.32  88.39  88.45 102.29
siesta: Fermi energy =      -5.326001 eV

siesta: Program's energy decomposition (eV):
siesta: Ebs     =      -343.375907
siesta: Eions   =      1510.441798
siesta: Ena     =       465.653521
siesta: Ekin    =       324.331327
siesta: Enl     =       110.874044
siesta: DEna    =         5.333342
siesta: DUscf   =         1.517994
siesta: DUext   =         0.000000
siesta: Exc     =      -259.237160
siesta: eta*DQ  =         0.000000
siesta: Emadel  =         0.000000
siesta: Emeta   =         0.000000
siesta: Emolmec =         0.000000
siesta: Ekinion =         0.000000
siesta: Eharris =      -861.969800
siesta: Etot    =      -861.968730
siesta: FreeEng =      -861.968730

siesta: Final energy (eV):
siesta:  Band Struct. =    -343.375907
siesta:       Kinetic =     324.331327
siesta:       Hartree =      58.148129
siesta:    Ext. field =       0.000000
siesta:   Exch.-corr. =    -259.237160
siesta:  Ion-electron =    -445.987928
siesta:       Ion-ion =    -539.223098
siesta:       Ekinion =       0.000000
siesta:         Total =    -861.968730

siesta: Stress tensor (static) (eV/Ang**3):
siesta:     0.003270    0.000165    0.000164
siesta:     0.000165    0.003270    0.000164
siesta:     0.000164    0.000164    0.003270

siesta: Constrained stress tensor (static) (eV/Ang**3):
siesta:     0.003270    0.000165    0.000164
siesta:     0.000165    0.003270    0.000164
siesta:     0.000164    0.000164    0.003270

siesta: Cell volume =        162.111345 Ang**3

siesta: Pressure (static):
siesta:                Solid            Molecule  Units
siesta:          -0.00003562         -0.00001834  Ry/Bohr**3
siesta:          -0.00327038         -0.00168435  eV/Ang**3
siesta:          -5.23978430         -2.69865853  kBar
(Free)E+ p_basis*V_orbitals  =        -852.995126
(Free)Eharris+ p_basis*V_orbitals  =        -852.997415

* Maximum dynamic memory allocated : Node    0 =    88 MB

* Maximum memory occured during init_pulay_arrrays            

timer: CPU execution times:
timer:  Routine       Calls   Time/call    Tot.time        %
timer:  siesta            1     545.350     545.350   100.00
timer:  Setup             1       0.144       0.144     0.03
timer:  bands             3       0.555       1.664     0.31
timer:  writewave         3       0.005       0.016     0.00
timer:  KSV_init          1       0.000       0.000     0.00
timer:  IterMD            6      90.573     543.438    99.65
timer:  hsparse           6       0.209       1.252     0.23
timer:  overlap           6       0.134       0.804     0.15
timer:  IterSCF          28      15.731     440.463    80.77
timer:  kinefsm          12       0.128       1.532     0.28
timer:  nlefsm           12       3.949      47.383     8.69
timer:  DHSCF            34       9.444     321.080    58.88
timer:  DHSCF1            6       0.049       0.296     0.05
timer:  DHSCF2            6       2.185      13.109     2.40
timer:  REORD           216       0.000       0.024     0.00
timer:  POISON           40       0.005       0.188     0.03
timer:  DHSCF3           34       8.292     281.914    51.69
timer:  rhoofd           34       3.921     133.328    24.45
timer:  cellXC           34       0.012       0.412     0.08
timer:  vmat             34       4.352     147.965    27.13
timer:  MolMec           12       0.000       0.000     0.00
timer:  diagon           28       6.050     169.391    31.06
timer:  c-eigval       3125       0.016      51.095     9.37
timer:  c-buildHS      3125       0.012      37.362     6.85
timer:  cdiag          6150       0.007      41.735     7.65
timer:  cdiag1         6150       0.000       3.025     0.55
timer:  cdiag2         6150       0.002      11.001     2.02
timer:  cdiag3         6150       0.004      26.801     4.91
timer:  cdiag4         6150       0.000       0.760     0.14
timer:  c-eigvec       3025       0.021      64.340    11.80
timer:  c-buildD       3024       0.018      55.400    10.16
timer:  DHSCF4            6       4.292      25.750     4.72
timer:  dfscf             6       4.126      24.758     4.54
timer:  overfsm           6       0.116       0.696     0.13
timer:  optical           1       0.000       0.000     0.00
  

elaps: ELAPSED times:
elaps:  Routine       Calls   Time/call    Tot.time        %
elaps:  siesta            1     547.289     547.289   100.00
elaps:  Setup             1       0.147       0.147     0.03
elaps:  bands             3       0.555       1.666     0.30
elaps:  writewave         3       0.006       0.019     0.00
elaps:  KSV_init          1       0.000       0.000     0.00
elaps:  IterMD            6      90.895     545.369    99.65
elaps:  hsparse           6       0.211       1.265     0.23
elaps:  overlap           6       0.134       0.807     0.15
elaps:  IterSCF          28      15.788     442.054    80.77
elaps:  kinefsm          12       0.128       1.530     0.28
elaps:  nlefsm           12       3.960      47.525     8.68
elaps:  DHSCF            34       9.475     322.166    58.87
elaps:  DHSCF1            6       0.049       0.293     0.05
elaps:  DHSCF2            6       2.192      13.155     2.40
elaps:  REORD           216       0.000       0.019     0.00
elaps:  POISON           40       0.005       0.193     0.04
elaps:  DHSCF3           34       8.320     282.871    51.69
elaps:  rhoofd           34       3.934     133.770    24.44
elaps:  cellXC           34       0.012       0.415     0.08
elaps:  vmat             34       4.367     148.476    27.13
elaps:  MolMec           12       0.000       0.000     0.00
elaps:  diagon           28       6.074     170.085    31.08
elaps:  c-eigval       3125       0.016      51.299     9.37
elaps:  c-buildHS      3125       0.012      37.523     6.86
elaps:  cdiag          6150       0.007      42.117     7.70
elaps:  cdiag1         6150       0.001       3.128     0.57
elaps:  cdiag2         6150       0.002      11.048     2.02
elaps:  cdiag3         6150       0.004      27.015     4.94
elaps:  cdiag4         6150       0.000       0.774     0.14
elaps:  c-eigvec       3025       0.021      64.814    11.84
elaps:  c-buildD       3024       0.018      55.412    10.12
elaps:  DHSCF4            6       4.306      25.834     4.72
elaps:  dfscf             6       4.141      24.847     4.54
elaps:  overfsm           6       0.116       0.698     0.13
elaps:  optical           1       0.000       0.000     0.00
  
>> End of run:   9-MAY-2013  16:33:40

=====================================================================================
=   BAD TERMINATION OF ONE OF YOUR APPLICATION PROCESSES
=   EXIT CODE: 134
=   CLEANING UP REMAINING PROCESSES
=   YOU CAN IGNORE THE BELOW CLEANUP MESSAGES
=====================================================================================
APPLICATION TERMINATED WITH THE EXIT STRING: Aborted (signal 6)
