Siesta Version:                                        siesta-3.2
Architecture  : x86_64-unknown-linux-gnu--unknown
Compiler flags: f95 -g -O2
SERIAL version

* Running in serial mode
>> Start of run:   9-MAY-2013  17:03:16
Siesta Version:                                        siesta-3.2
Architecture  : x86_64-unknown-linux-gnu--unknown
Compiler flags: f95 -g -O2
SERIAL version

* Running in serial mode
>> Start of run:   9-MAY-2013  17:03:16

                           ***********************       
                           *  WELCOME TO SIESTA  *       
                           ***********************       

reinit: Reading from standard input
************************** Dump of input data file ****************************
************************** End of input data file *****************************

reinit: -----------------------------------------------------------------------
reinit: System Name: 
reinit: -----------------------------------------------------------------------
reinit: System Label: siesta                                                      
reinit: -----------------------------------------------------------------------

                           ***********************       
                           *  WELCOME TO SIESTA  *       
                           ***********************       

reinit: Reading from standard input
************************** Dump of input data file ****************************
# FDF for silicon
SystemName             silicon          # Descriptive name of the system
SystemLabel            si          # Short name for naming files
NumberOfAtoms 8
NumberOfSpecies 1
%block ChemicalSpeciesLabel
1 14 Si
%endblock ChemicalSpeciesLabel
LatticeConstant  5.60 Ang
##Basis set Definition##
PAO.BasisType          split        # Type of PAO basis set
PAO.EnergyShift        50 meV
PAO.BasisSize          DZP          # (DZP) Double-z + polarization
#%block LatticeVectors
#0.500 0.500 0.000
#0.500 0.000 0.500
#0.000 0.500 0.500
#%endblock LatticeVectors
AtomicCoordinatesFormat NotScaledCartesianAng
%block AtomicCoordinatesAndAtomicSpecies
	0.00000000	0.00000000	0.00000000  1 Si  1
	1.36000000	1.36000000	1.36000000  1 Si  2
	2.72000000	2.72000000	0.00000000  1 Si  3
	4.08000000	4.08000000	1.36000000  1 Si  4
	2.72000000	0.00000000	2.72000000  1 Si  5
	4.08000000	1.36000000	4.08000000  1 Si  6
	0.00000000	2.72000000	2.72000000  1 Si  7
	1.36000000	4.08000000	4.08000000  1 Si  8
%endblock AtomicCoordinatesAndAtomicSpecies
MeshCutoff 100.0 Ry # 100, 120, 180, 260
kgrid_cutoff 30.0 Bohr # 30, 35, 40, 45
DM.Mixingweight  0.3
DM.NumberPulay    3
DM.Tolerance      1.d-3
DM.UseSaveDM      true
ElectronicTemperature 25 meV
SolutionMethod    diagon
XC.functional     LDA	    # Local Density Approximation
XC.authors        CA           # Ceperley-Alder
SpinPolarized     false
MD.TypeOfRun           CG           # Type of dynamics:
MD.VariableCell        true
MD.NumCGsteps          100          # Number of CG steps for coordinate optimization
MD.MaxCGDispl          0.2 Bohr     # Maximum atomic displacement
                                    #   in one CG step (Bohr)
MD.MaxForceTol         0.04 eV/Ang  # Tolerance in the maximum
                                    #   atomic force (Ry/Bohr)
				
##Output Specification##
WriteMDhistory         true         # Trajectory information
WriteCoorStep          true
WriteCoorXmol          true
WriteMDXmol            true
WriteEigenvalues true
WriteKbands      true
WriteBands       true
WriteWaveFunctions true
WriteMullikenPoP   1
%block BandLines
1	1.000	1.000 1.000 L
25	0.000	0.000	0.000 \Gamma
30	2.000	0.000	0.000 X
10	2.000	0.500	0.500 U
35	0.000	0.000	0.000 \Gamma
%endblock BandLines
%block WaveFuncKPoints
0.0 0.0 0.0 from 1 to 50 # > 16 = 4/2*8 (Valenzelektronen/2, Atomzahl ...)
%endblock WaveFuncKpoints
************************** End of input data file *****************************

reinit: -----------------------------------------------------------------------
reinit: System Name: silicon
reinit: -----------------------------------------------------------------------
reinit: System Label: si                                                          
reinit: -----------------------------------------------------------------------

initatom: Reading input for the pseudopotentials and atomic orbitals ----------
No species found!!!
ERROR STOP from Node:    0

initatom: Reading input for the pseudopotentials and atomic orbitals ----------
 Species number:            1  Label: Si Atomic number:          14
Ground state valence configuration:   3s02  3p02
Reading pseudopotential information in formatted form from Si.psf

Valence configuration for pseudopotential generation:
3s( 2.00) rc: 1.75
3p( 2.00) rc: 1.94
3d( 0.00) rc: 2.09
4f( 0.00) rc: 2.09
For Si, standard SIESTA heuristics set lmxkb to 3
 (one more than the basis l, including polarization orbitals).
Use PS.lmax or PS.KBprojectors blocks to override.

<basis_specs>
===============================================================================
Si                   Z=  14    Mass=  28.090        Charge= 0.17977+309
Lmxo=1 Lmxkb= 3    BasisType=split      Semic=F
L=0  Nsemic=0  Cnfigmx=3
          n=1  nzeta=2  polorb=0
            splnorm:   0.15000    
               vcte:    0.0000    
               rinn:    0.0000    
                rcs:    0.0000      0.0000    
            lambdas:    1.0000      1.0000    
L=1  Nsemic=0  Cnfigmx=3
          n=1  nzeta=2  polorb=1
            splnorm:   0.15000    
               vcte:    0.0000    
               rinn:    0.0000    
                rcs:    0.0000      0.0000    
            lambdas:    1.0000      1.0000    
-------------------------------------------------------------------------------
L=0  Nkbl=1  erefs: 0.17977+309
L=1  Nkbl=1  erefs: 0.17977+309
L=2  Nkbl=1  erefs: 0.17977+309
L=3  Nkbl=1  erefs: 0.17977+309
===============================================================================
</basis_specs>

atom: Called for Si                    (Z =  14)

read_vps: Pseudopotential generation method:
read_vps: ATM3      Troullier-Martins                       
Total valence charge:    4.00000

xc_check: Exchange-correlation functional:
xc_check: Ceperley-Alder
V l=0 = -2*Zval/r beyond r=  2.5494
V l=1 = -2*Zval/r beyond r=  2.5494
V l=2 = -2*Zval/r beyond r=  2.5494
V l=3 = -2*Zval/r beyond r=  2.5494
All V_l potentials equal beyond r=  2.0613
This should be close to max(r_c) in ps generation
All pots = -2*Zval/r beyond r=  2.5494

VLOCAL1: 99.0% of the norm of Vloc inside     10.216 Ry
VLOCAL1: 99.9% of the norm of Vloc inside     23.282 Ry
atom: Maximum radius for 4*pi*r*r*local-pseudopot. charge    2.45560
atom: Maximum radius for r*vlocal+2*Zval:    2.14012
GHOST: No ghost state for L =  0
GHOST: No ghost state for L =  1
GHOST: No ghost state for L =  2
GHOST: No ghost state for L =  3

KBgen: Kleinman-Bylander projectors: 
   l= 0   rc=  2.782581   el= -0.796617   Ekb=  4.840502   kbcos=  0.288423
   l= 1   rc=  2.888916   el= -0.307040   Ekb=  1.512733   kbcos=  0.296968
   l= 2   rc=  2.962054   el=  0.002313   Ekb= -2.156507   kbcos= -0.061834
   l= 3   rc=  3.192765   el=  0.003402   Ekb= -0.600958   kbcos= -0.007408

KBgen: Total number of  Kleinman-Bylander projectors:   16
atom: -------------------------------------------------------------------------

atom: SANKEY-TYPE ORBITALS:
atom: Selected multiple-zeta basis: split     

SPLIT: Orbitals with angular momentum L= 0

SPLIT: Basis orbitals for state 3s

SPLIT: PAO cut-off radius determined from an
SPLIT: energy shift=  0.003675 Ry

   izeta = 1
                 lambda =    1.000000
                     rc =    6.116033
                 energy =   -0.793486
                kinetic =    0.528761
    potential(screened) =   -1.322246
       potential(ionic) =   -3.766038

   izeta = 2
                 rmatch =    4.530823
              splitnorm =    0.150000
                 energy =   -0.697320
                kinetic =    0.853435
    potential(screened) =   -1.550756
       potential(ionic) =   -4.120809

SPLIT: Orbitals with angular momentum L= 1

SPLIT: Basis orbitals for state 3p

SPLIT: PAO cut-off radius determined from an
SPLIT: energy shift=  0.003675 Ry

   izeta = 1
                 lambda =    1.000000
                     rc =    7.853192
                 energy =   -0.303674
                kinetic =    0.798475
    potential(screened) =   -1.102149
       potential(ionic) =   -3.307324

   izeta = 2
                 rmatch =    5.397360
              splitnorm =    0.150000
                 energy =   -0.229357
                kinetic =    1.170483
    potential(screened) =   -1.399841
       potential(ionic) =   -3.814095

POLgen: Perturbative polarization orbital with L=  2

POLgen: Polarization orbital for state 3p

   izeta = 1
                     rc =    7.853192
                 energy =    0.331669
                kinetic =    1.088595
    potential(screened) =   -0.756926
       potential(ionic) =   -2.714870
atom: Total number of Sankey-type orbitals: 13

atm_pop: Valence configuration (for local Pseudopot. screening):
 3s( 2.00)                                                            
 3p( 2.00)                                                            
Vna: chval, zval:    4.00000   4.00000

Vna:  Cut-off radius for the neutral-atom potential:   7.853192

atom: _________________________________________________________________________

prinput: Basis input ----------------------------------------------------------

PAO.BasisType split     

%block ChemicalSpeciesLabel
    1   14 Si                      # Species index, atomic number, species label
%endblock ChemicalSpeciesLabel

%block PAO.Basis                 # Define Basis set
Si                    2                    # Species label, number of l-shells
 n=3   0   2                         # n, l, Nzeta 
   6.116      4.531   
   1.000      1.000   
 n=3   1   2 P   1                   # n, l, Nzeta, Polarization, NzetaPol
   7.853      5.397   
   1.000      1.000   
%endblock PAO.Basis

prinput: ----------------------------------------------------------------------

coor:   Atomic-coordinates input format  =     Cartesian coordinates
coor:                                          (in Angstroms)

siesta: Atomic coordinates (Bohr) and species
siesta:      0.00000   0.00000   0.00000  1        1
siesta:      2.57003   2.57003   2.57003  1        2
siesta:      5.14006   5.14006   0.00000  1        3
siesta:      7.71009   7.71009   2.57003  1        4
siesta:      5.14006   0.00000   5.14006  1        5
siesta:      7.71009   2.57003   7.71009  1        6
siesta:      0.00000   5.14006   5.14006  1        7
siesta:      2.57003   7.71009   7.71009  1        8

siesta: System type = bulk      

initatomlists: Number of atoms, orbitals, and projectors:      8   104   128

siesta: ******************** Simulation parameters ****************************
siesta:
siesta: The following are some of the parameters of the simulation.
siesta: A complete list of the parameters used, including default values,
siesta: can be found in file out.fdf
siesta:
redata: Non-Collinear-spin run           =     F
redata: SpinPolarized (Up/Down) run      =     F
redata: Number of spin components        =     1
redata: Long output                      =     F
redata: Number of Atomic Species         =        1
redata: Charge density info will appear in .RHO file
redata: Write Mulliken Pop.              =     Atomic and Orbital charges
redata: Mesh Cutoff                      =   100.0000  Ry
redata: Net charge of the system         =     0.0000 |e|
redata: Max. number of SCF Iter          =       50
redata: Performing Pulay mixing using    =     3 iterations
redata: Mix DM in first SCF step ?       =     F
redata: Write Pulay info on disk?        =     F
redata: Discard 1st Pulay DM after  kick =     F
redata: New DM Mixing Weight             =     0.3000
redata: New DM Occupancy tolerance       = 0.000000000001
redata: No kicks to SCF
redata: DM Mixing Weight for Kicks       =     0.5000
redata: DM Tolerance for SCF             =     0.001000
redata: Require Energy convergence for SCF =     F
redata: DM Energy tolerance for SCF      =     0.000100 eV
redata: Require Harris convergence for SCF =     F
redata: DM Harris energy tolerance for SCF =     0.000100 eV
redata: Using Saved Data (generic)   =     F
redata: Use continuation files for DM    =     T
redata: Neglect nonoverlap interactions  =     F
redata: Method of Calculation            =     Diagonalization
redata: Divide and Conquer               =     T
redata: Electronic Temperature           =     0.0018  Ry
redata: Fix the spin of the system       =     F
redata: Dynamics option                  =     CG coord. optimization
redata: Variable cell                    =     T
redata: Use continuation files for CG    =     F
redata: Max atomic displ per move        =     0.2000  Bohr
redata: Maximum number of CG moves       =      100
redata: Force tolerance                  =     0.0016  Ry/Bohr
redata: Stress tolerance                 =     1.0000  GPa
redata: ***********************************************************************
Total number of electrons:    32.000000
Total ionic charge:    32.000000
 Kpoints in:          108 . Kpoints trimmed:          108

siesta: k-grid: Number of k-points =   108
siesta: k-grid: Cutoff (effective) =    16.800 Ang
siesta: k-grid: Supercell and displacements
siesta: k-grid:    0   6   0      0.500
siesta: k-grid:    0   0   6      0.500
siesta: k-grid:    6   0   0      0.500
Naive supercell factors:     5    5    5

superc: Internal auxiliary supercell:     5 x     5 x     5  =     125
superc: Number of atoms, orbitals, and projectors:   1000  13000  16000

* Maximum dynamic memory allocated =     1 MB

siesta:                 ==============================
                            Begin CG move =      0
                        ==============================

outcoor: Atomic coordinates (Ang):                          
    0.00000000    0.00000000    0.00000000   1       1  Si
    1.36000000    1.36000000    1.36000000   1       2  Si
    2.72000000    2.72000000    0.00000000   1       3  Si
    4.08000000    4.08000000    1.36000000   1       4  Si
    2.72000000    0.00000000    2.72000000   1       5  Si
    4.08000000    1.36000000    4.08000000   1       6  Si
    0.00000000    2.72000000    2.72000000   1       7  Si
    1.36000000    4.08000000    4.08000000   1       8  Si

superc: Internal auxiliary supercell:     5 x     5 x     5  =     125
superc: Number of atoms, orbitals, and projectors:   1000  13000  16000

outcell: Unit cell vectors (Ang):
        5.600000    0.000000    0.000000
        0.000000    5.600000    0.000000
        0.000000    0.000000    5.600000

outcell: Cell vector modules (Ang)   :    5.600000    5.600000    5.600000
outcell: Cell angles (23,13,12) (deg):     90.0000     90.0000     90.0000
outcell: Cell volume (Ang**3)        :    175.6160
New_DM. Step:     1
Initializing Density Matrix...

InitMesh: MESH =    36 x    36 x    36 =       46656
InitMesh: Mesh cutoff (required, used) =   100.000   114.217 Ry

* Maximum dynamic memory allocated =    72 MB

stepf: Fermi-Dirac step function

siesta: Program's energy decomposition (eV):
siesta: Ebs     =      -342.282927
siesta: Eions   =      1510.441798
siesta: Ena     =       470.173817
siesta: Ekin    =       288.938730
siesta: Enl     =       132.251124
siesta: DEna    =         0.000001
siesta: DUscf   =         0.000000
siesta: DUext   =         0.000000
siesta: Exc     =      -250.922589
siesta: eta*DQ  =         0.000000
siesta: Emadel  =         0.000000
siesta: Emeta   =         0.000000
siesta: Emolmec =         0.000000
siesta: Ekinion =         0.000000
siesta: Eharris =      -861.632461
siesta: Etot    =      -870.000717
siesta: FreeEng =      -870.000717

siesta: iscf   Eharris(eV)      E_KS(eV)   FreeEng(eV)   dDmax  Ef(eV)
siesta:    1     -861.6325     -870.0007     -870.0007  1.7771 -5.4191
timer: Routine,Calls,Time,% = IterSCF        1      17.109  96.72
elaps: Routine,Calls,Wall,% = IterSCF        1      17.172  96.72
siesta:    2     -861.2893     -861.1889     -861.1889  0.0924 -5.1725
siesta:    3     -861.2699     -861.6195     -861.6195  0.0483 -5.1977
siesta:    4     -861.2656     -861.2569     -861.2569  0.0023 -5.2131
siesta:    5     -861.2655     -861.2608     -861.2608  0.0018 -5.2146
siesta:    6     -861.2655     -861.2660     -861.2660  0.0011 -5.2161
siesta:    7     -861.2655     -861.2661     -861.2661  0.0002 -5.2158

siesta: E_KS(eV) =             -861.2659

siesta: E_KS - E_eggbox =      -861.2659

siesta: Atomic forces (eV/Ang):
----------------------------------------
   Tot    0.000903    0.000903    0.000908
----------------------------------------
   Max    1.122391
   Res    0.740555    sqrt( Sum f_i^2 / 3N )
----------------------------------------
   Max    1.122391    constrained

Stress-tensor-Voigt (kbar):       60.88       60.88       60.88       -9.82       -9.82       -9.82
(Free)E + p*V (eV/cell)     -867.9387
Target enthalpy (eV/cell)     -861.2659

siesta: Stress tensor (static) (eV/Ang**3):
         0.037997   -0.006131   -0.006131
        -0.006131    0.037997   -0.006131
        -0.006131   -0.006131    0.037997

siesta: Pressure (static):        -60.87782603  kBar

siesta: Stress tensor (total) (eV/Ang**3):
         0.037997   -0.006131   -0.006131
        -0.006131    0.037997   -0.006131
        -0.006131   -0.006131    0.037997

siesta: Pressure (total):        -60.87782603  kBar

mulliken: Mulliken Atomic and Orbital Populations:

Species: Si                  
Atom  Qatom  Qorb
               3s      3s      3py     3pz     3px     3py     3pz     3px     
               3Pdxy   3Pdyz   3Pdz2   3Pdxz   3Pdx2-y2
   1  4.024   0.782   0.505   0.347   0.347   0.347   0.425   0.425   0.425
              0.102   0.102   0.058   0.102   0.058
   2  3.995   0.602   0.591   0.237   0.237   0.237   0.522   0.522   0.522
              0.124   0.124   0.076   0.124   0.076
   3  3.992   0.659   0.563   0.286   0.242   0.286   0.480   0.509   0.480
              0.113   0.118   0.073   0.118   0.065
   4  4.002   0.720   0.534   0.292   0.336   0.292   0.468   0.437   0.468
              0.113   0.107   0.060   0.107   0.067
   5  3.992   0.659   0.563   0.242   0.286   0.286   0.509   0.480   0.480
              0.118   0.118   0.067   0.113   0.071
   6  4.002   0.720   0.534   0.336   0.292   0.292   0.437   0.468   0.468
              0.107   0.107   0.065   0.113   0.062
   7  3.992   0.659   0.563   0.286   0.286   0.242   0.480   0.480   0.509
              0.118   0.113   0.067   0.118   0.071
   8  4.002   0.720   0.534   0.292   0.292   0.336   0.468   0.468   0.437
              0.107   0.113   0.065   0.107   0.062

mulliken: Qtot =       32.000

cgvc: No target stress found, assuming hydrostatic MD.TargetPressure.

cgvc: Target stress (kBar)
cgvc:        -0.000       0.000       0.000
cgvc:         0.000      -0.000       0.000
cgvc:         0.000       0.000      -0.000

* Maximum dynamic memory allocated =    74 MB

siesta:                 ==============================
                            Begin CG move =      1
                        ==============================

outcoor: Atomic coordinates (Ang):                          
   -0.02502480   -0.02502476   -0.02502469   1       1  Si
    1.35108033    1.35108028    1.35108024   1       2  Si
    2.70769065    2.70769063   -0.02158181   1       3  Si
    4.08365433    4.08365430    1.36054707   1       4  Si
    2.70769072   -0.02158213    2.70769076   1       5  Si
    4.08365434    1.36054725    4.08365437   1       6  Si
   -0.02158209    2.70769078    2.70769079   1       7  Si
    1.36054726    4.08365433    4.08365429   1       8  Si
 Kpoints in:          108 . Kpoints trimmed:          108

siesta: k-grid: Number of k-points =   108
siesta: k-grid: Cutoff (effective) =    16.690 Ang
siesta: k-grid: Supercell and displacements
siesta: k-grid:    0   0   6      0.500
siesta: k-grid:    0   6   0      0.500
siesta: k-grid:    6   0   0      0.500
Naive supercell factors:     5    5    5

superc: Internal auxiliary supercell:     5 x     5 x     5  =     125
superc: Number of atoms, orbitals, and projectors:   1000  13000  16000

outcell: Unit cell vectors (Ang):
        5.563364    0.005912    0.005912
        0.005912    5.563364    0.005912
        0.005912    0.005912    5.563364

outcell: Cell vector modules (Ang)   :    5.563370    5.563370    5.563370
outcell: Cell angles (23,13,12) (deg):     89.8782     89.8782     89.8782
outcell: Cell volume (Ang**3)        :    172.1912
New_DM. Step:     2
Re-using DM from previous geometry...
Re-using DM without extrapolation (not allowed)
Density Matrix sparsity pattern changed.

InitMesh: MESH =    36 x    36 x    36 =       46656
InitMesh: Mesh cutoff (required, used) =   100.000   115.727 Ry

siesta: iscf   Eharris(eV)      E_KS(eV)   FreeEng(eV)   dDmax  Ef(eV)
siesta:    1     -861.6710     -861.9499     -861.9499  0.0181 -5.2532
siesta:    2     -861.7677     -861.5797     -861.5797  0.0449 -5.2308
siesta:    3     -861.6408     -861.7231     -861.7231  0.0089 -5.2457
siesta:    4     -861.6407     -861.6265     -861.6265  0.0013 -5.2442
siesta:    5     -861.6407     -861.6297     -861.6297  0.0008 -5.2442

siesta: E_KS(eV) =             -861.6379

siesta: Atomic forces (eV/Ang):
----------------------------------------
   Tot   -0.005181   -0.005183   -0.005177
----------------------------------------
   Max    0.576126
   Res    0.427922    sqrt( Sum f_i^2 / 3N )
----------------------------------------
   Max    0.576126    constrained

Stress-tensor-Voigt (kbar):       51.51       51.51       51.51       -2.05       -2.05       -2.05
(Free)E + p*V (eV/cell)     -867.1741
Target enthalpy (eV/cell)     -861.6379

siesta: Stress tensor (static) (eV/Ang**3):
         0.032152   -0.001276   -0.001276
        -0.001276    0.032152   -0.001276
        -0.001276   -0.001276    0.032152

siesta: Pressure (static):        -51.51295648  kBar

siesta: Stress tensor (total) (eV/Ang**3):
         0.032152   -0.001276   -0.001276
        -0.001276    0.032152   -0.001276
        -0.001276   -0.001276    0.032152

siesta: Pressure (total):        -51.51295648  kBar

mulliken: Mulliken Atomic and Orbital Populations:

Species: Si                  
Atom  Qatom  Qorb
               3s      3s      3py     3pz     3px     3py     3pz     3px     
               3Pdxy   3Pdyz   3Pdz2   3Pdxz   3Pdx2-y2
   1  4.009   0.744   0.521   0.309   0.309   0.309   0.457   0.457   0.457
              0.108   0.108   0.062   0.108   0.062
   2  3.998   0.625   0.578   0.242   0.242   0.242   0.518   0.518   0.518
              0.122   0.122   0.074   0.122   0.074
   3  3.997   0.660   0.561   0.274   0.243   0.274   0.491   0.511   0.491
              0.115   0.119   0.073   0.119   0.067
   4  4.000   0.699   0.542   0.275   0.305   0.275   0.485   0.464   0.485
              0.115   0.112   0.064   0.112   0.068
   5  3.997   0.660   0.561   0.243   0.274   0.274   0.511   0.491   0.491
              0.119   0.119   0.069   0.115   0.072
   6  4.000   0.699   0.542   0.305   0.275   0.275   0.464   0.485   0.485
              0.112   0.112   0.067   0.115   0.065
   7  3.997   0.660   0.561   0.274   0.274   0.243   0.491   0.491   0.511
              0.119   0.115   0.069   0.119   0.072
   8  4.000   0.699   0.542   0.275   0.275   0.305   0.485   0.485   0.464
              0.112   0.115   0.067   0.112   0.065

mulliken: Qtot =       32.000

* Maximum dynamic memory allocated =    74 MB

siesta:                 ==============================
                            Begin CG move =      2
                        ==============================

outcoor: Atomic coordinates (Ang):                          
   -0.06460117   -0.06460105   -0.06460088   1       1  Si
    1.33686244    1.33686230    1.33686220   1       2  Si
    2.68781422    2.68781416   -0.05534066   1       3  Si
    4.08894007    4.08894000    1.36161837   1       4  Si
    2.68781441   -0.05534147    2.68781449   1       5  Si
    4.08894010    1.36161881    4.08894017   1       6  Si
   -0.05534138    2.68781454    2.68781458   1       7  Si
    1.36161885    4.08894007    4.08893995   1       8  Si
 Kpoints in:          108 . Kpoints trimmed:          108

siesta: k-grid: Number of k-points =   108
siesta: k-grid: Cutoff (effective) =    16.514 Ang
siesta: k-grid: Supercell and displacements
siesta: k-grid:    0   0   6      0.500
siesta: k-grid:    0   6   0      0.500
siesta: k-grid:    6   0   0      0.500
Naive supercell factors:     5    5    5

superc: Internal auxiliary supercell:     5 x     5 x     5  =     125
superc: Number of atoms, orbitals, and projectors:   1000  13000  16000

outcell: Unit cell vectors (Ang):
        5.504745    0.015371    0.015371
        0.015371    5.504745    0.015371
        0.015371    0.015371    5.504745

outcell: Cell vector modules (Ang)   :    5.504788    5.504788    5.504788
outcell: Cell angles (23,13,12) (deg):     89.6796     89.6796     89.6796
outcell: Cell volume (Ang**3)        :    166.8021
New_DM. Step:     3
Re-using DM from previous geometry...
Re-using DM without extrapolation (not allowed)
Density Matrix sparsity pattern changed.

InitMesh: MESH =    36 x    36 x    36 =       46656
InitMesh: Mesh cutoff (required, used) =   100.000   118.210 Ry

siesta: iscf   Eharris(eV)      E_KS(eV)   FreeEng(eV)   dDmax  Ef(eV)
siesta:    1     -861.9284     -862.5682     -862.5682  0.0248 -5.2434
siesta:    2     -862.1326     -861.7319     -861.7319  0.0610 -5.2174
siesta:    3     -861.8629     -862.0198     -862.0198  0.0124 -5.2132
siesta:    4     -861.8627     -861.8270     -861.8270  0.0016 -5.2091
siesta:    5     -861.8627     -861.8353     -861.8353  0.0011 -5.2099
siesta:    6     -861.8627     -861.8557     -861.8557  0.0002 -5.2112

siesta: E_KS(eV) =             -861.8588

siesta: Atomic forces (eV/Ang):
----------------------------------------
   Tot   -0.000665   -0.000666   -0.000688
----------------------------------------
   Max    0.490290
   Res    0.317860    sqrt( Sum f_i^2 / 3N )
----------------------------------------
   Max    0.490290    constrained

Stress-tensor-Voigt (kbar):       28.03       28.03       28.03       11.74       11.74       11.74
(Free)E + p*V (eV/cell)     -864.7774
Target enthalpy (eV/cell)     -861.8588

siesta: Stress tensor (static) (eV/Ang**3):
         0.017498    0.007325    0.007326
         0.007325    0.017497    0.007326
         0.007326    0.007326    0.017497

siesta: Pressure (static):        -28.03436116  kBar

siesta: Stress tensor (total) (eV/Ang**3):
         0.017498    0.007325    0.007326
         0.007325    0.017497    0.007326
         0.007326    0.007326    0.017497

siesta: Pressure (total):        -28.03436116  kBar

mulliken: Mulliken Atomic and Orbital Populations:

Species: Si                  
Atom  Qatom  Qorb
               3s      3s      3py     3pz     3px     3py     3pz     3px     
               3Pdxy   3Pdyz   3Pdz2   3Pdxz   3Pdx2-y2
   1  3.999   0.675   0.552   0.256   0.256   0.256   0.504   0.504   0.504
              0.118   0.118   0.070   0.118   0.070
   2  4.000   0.656   0.561   0.247   0.247   0.247   0.513   0.513   0.513
              0.120   0.120   0.072   0.120   0.072
   3  4.000   0.656   0.562   0.249   0.241   0.249   0.511   0.516   0.511
              0.120   0.120   0.073   0.120   0.071
   4  4.000   0.662   0.559   0.250   0.253   0.250   0.509   0.508   0.509
              0.120   0.119   0.071   0.119   0.072
   5  4.000   0.656   0.562   0.241   0.249   0.249   0.516   0.511   0.511
              0.120   0.120   0.072   0.120   0.072
   6  4.000   0.662   0.559   0.253   0.250   0.250   0.508   0.509   0.509
              0.119   0.119   0.071   0.120   0.071
   7  4.000   0.656   0.562   0.249   0.249   0.241   0.511   0.511   0.516
              0.120   0.120   0.072   0.120   0.072
   8  4.000   0.662   0.559   0.250   0.250   0.253   0.509   0.509   0.508
              0.119   0.120   0.071   0.119   0.071

mulliken: Qtot =       32.000

* Maximum dynamic memory allocated =    82 MB

siesta:                 ==============================
                            Begin CG move =      3
                        ==============================

outcoor: Atomic coordinates (Ang):                          
   -0.06313042   -0.06313031   -0.06313014   1       1  Si
    1.33739331    1.33739317    1.33739308   1       2  Si
    2.68856206    2.68856200   -0.05409445   1       3  Si
    4.08875470    4.08875464    1.36157393   1       4  Si
    2.68856224   -0.05409525    2.68856232   1       5  Si
    4.08875473    1.36157437    4.08875481   1       6  Si
   -0.05409516    2.68856237    2.68856241   1       7  Si
    1.36157441    4.08875471    4.08875459   1       8  Si
 Kpoints in:          108 . Kpoints trimmed:          108

siesta: k-grid: Number of k-points =   108
siesta: k-grid: Cutoff (effective) =    16.521 Ang
siesta: k-grid: Supercell and displacements
siesta: k-grid:    0   0   6      0.500
siesta: k-grid:    0   6   0      0.500
siesta: k-grid:    6   0   0      0.500
Naive supercell factors:     5    5    5

superc: Internal auxiliary supercell:     5 x     5 x     5  =     125
superc: Number of atoms, orbitals, and projectors:   1000  13000  16000

outcell: Unit cell vectors (Ang):
        5.506939    0.015017    0.015017
        0.015017    5.506939    0.015017
        0.015017    0.015017    5.506939

outcell: Cell vector modules (Ang)   :    5.506980    5.506980    5.506980
outcell: Cell angles (23,13,12) (deg):     89.6871     89.6871     89.6871
outcell: Cell volume (Ang**3)        :    167.0018
New_DM. Step:     4
Re-using DM from previous geometry...
Re-using DM without extrapolation (not allowed)
Density Matrix sparsity pattern changed.

InitMesh: MESH =    36 x    36 x    36 =       46656
InitMesh: Mesh cutoff (required, used) =   100.000   118.115 Ry

siesta: iscf   Eharris(eV)      E_KS(eV)   FreeEng(eV)   dDmax  Ef(eV)
siesta:    1     -861.8632     -861.8272     -861.8272  0.0011 -5.2138
siesta:    2     -861.8635     -861.8630     -861.8630  0.0024 -5.2157
siesta:    3     -861.8631     -861.8532     -861.8532  0.0005 -5.2147

siesta: E_KS(eV) =             -861.8632

siesta: Atomic forces (eV/Ang):
----------------------------------------
   Tot    0.000641    0.000644    0.000649
----------------------------------------
   Max    0.480419
   Res    0.302752    sqrt( Sum f_i^2 / 3N )
----------------------------------------
   Max    0.480419    constrained

Stress-tensor-Voigt (kbar):       28.99       28.99       28.99       11.13       11.13       11.13
(Free)E + p*V (eV/cell)     -864.8854
Target enthalpy (eV/cell)     -861.8632

siesta: Stress tensor (static) (eV/Ang**3):
         0.018097    0.006949    0.006949
         0.006949    0.018097    0.006949
         0.006949    0.006949    0.018097

siesta: Pressure (static):        -28.99496141  kBar

siesta: Stress tensor (total) (eV/Ang**3):
         0.018097    0.006949    0.006949
         0.006949    0.018097    0.006949
         0.006949    0.006949    0.018097

siesta: Pressure (total):        -28.99496141  kBar

mulliken: Mulliken Atomic and Orbital Populations:

Species: Si                  
Atom  Qatom  Qorb
               3s      3s      3py     3pz     3px     3py     3pz     3px     
               3Pdxy   3Pdyz   3Pdz2   3Pdxz   3Pdx2-y2
   1  3.999   0.678   0.551   0.257   0.257   0.257   0.502   0.502   0.502
              0.117   0.117   0.070   0.117   0.070
   2  4.000   0.656   0.562   0.247   0.247   0.247   0.513   0.513   0.513
              0.120   0.120   0.072   0.120   0.072
   3  4.000   0.657   0.561   0.250   0.241   0.250   0.510   0.516   0.510
              0.119   0.120   0.073   0.120   0.071
   4  4.000   0.664   0.558   0.251   0.254   0.251   0.508   0.506   0.508
              0.119   0.119   0.071   0.119   0.071
   5  4.000   0.657   0.561   0.241   0.250   0.250   0.516   0.510   0.510
              0.120   0.120   0.072   0.119   0.072
   6  4.000   0.664   0.558   0.254   0.251   0.251   0.506   0.508   0.508
              0.119   0.119   0.071   0.119   0.071
   7  4.000   0.657   0.561   0.250   0.250   0.241   0.510   0.510   0.516
              0.120   0.119   0.072   0.120   0.072
   8  4.000   0.664   0.558   0.251   0.251   0.254   0.508   0.508   0.506
              0.119   0.119   0.071   0.119   0.071

mulliken: Qtot =       32.000

cgvc: Finished line minimization    1.  Mean atomic displacement =    0.1676

* Maximum dynamic memory allocated =    84 MB

siesta:                 ==============================
                            Begin CG move =      4
                        ==============================

outcoor: Atomic coordinates (Ang):                          
   -0.06406880   -0.06406869   -0.06407104   1       1  Si
    1.25484896    1.25484922    1.25485103   1       2  Si
    2.65972306    2.65972322   -0.06678920   1       3  Si
    3.97676739    3.97676732    1.23649826   1       4  Si
    2.65972275   -0.06678777    2.65972168   1       5  Si
    3.97676656    1.23649782    3.97676828   1       6  Si
   -0.06678790    2.65972265    2.65972165   1       7  Si
    1.23649801    3.97676661    3.97676844   1       8  Si
 Kpoints in:          108 . Kpoints trimmed:          108

siesta: k-grid: Number of k-points =   108
siesta: k-grid: Cutoff (effective) =    16.165 Ang
siesta: k-grid: Supercell and displacements
siesta: k-grid:    0   6   0      0.500
siesta: k-grid:    6   0   0      0.500
siesta: k-grid:    0   0   6      0.500
Naive supercell factors:     5    5    5

superc: Internal auxiliary supercell:     5 x     5 x     5  =     125
superc: Number of atoms, orbitals, and projectors:   1000  13000  16000

outcell: Unit cell vectors (Ang):
        5.388403   -0.012014   -0.012015
       -0.012014    5.388403   -0.012015
       -0.012015   -0.012015    5.388403

outcell: Cell vector modules (Ang)   :    5.388430    5.388430    5.388430
outcell: Cell angles (23,13,12) (deg):     90.2552     90.2552     90.2552
outcell: Cell volume (Ang**3)        :    156.4494
New_DM. Step:     5
Re-using DM from previous geometry...
Re-using DM without extrapolation (not allowed)
Density Matrix sparsity pattern changed.

InitMesh: MESH =    36 x    36 x    36 =       46656
InitMesh: Mesh cutoff (required, used) =   100.000   123.367 Ry

siesta: iscf   Eharris(eV)      E_KS(eV)   FreeEng(eV)   dDmax  Ef(eV)
siesta:    1     -861.8400     -863.5749     -863.5749  0.0598 -5.3983
siesta:    2     -862.0258     -861.6481     -861.6481  0.0634 -5.3984
siesta:    3     -861.7745     -861.9448     -861.9448  0.0117 -5.3880
siesta:    4     -861.7735     -861.7298     -861.7298  0.0028 -5.3850
siesta:    5     -861.7735     -861.7388     -861.7388  0.0021 -5.3857
siesta:    6     -861.7734     -861.7665     -861.7665  0.0002 -5.3869

siesta: E_KS(eV) =             -861.7698

siesta: Atomic forces (eV/Ang):
----------------------------------------
   Tot    0.000769    0.000777    0.000763
----------------------------------------
   Max    0.934743
   Res    0.584989    sqrt( Sum f_i^2 / 3N )
----------------------------------------
   Max    0.934743    constrained

Stress-tensor-Voigt (kbar):      -32.35      -32.35      -32.35      -18.86      -18.86      -18.86
(Free)E + p*V (eV/cell)     -858.6110
Target enthalpy (eV/cell)     -861.7698

siesta: Stress tensor (static) (eV/Ang**3):
        -0.020190   -0.011769   -0.011770
        -0.011769   -0.020190   -0.011770
        -0.011770   -0.011770   -0.020191

siesta: Pressure (static):         32.34912076  kBar

siesta: Stress tensor (total) (eV/Ang**3):
        -0.020190   -0.011769   -0.011770
        -0.011769   -0.020190   -0.011770
        -0.011770   -0.011770   -0.020191

siesta: Pressure (total):         32.34912076  kBar

mulliken: Mulliken Atomic and Orbital Populations:

Species: Si                  
Atom  Qatom  Qorb
               3s      3s      3py     3pz     3px     3py     3pz     3px     
               3Pdxy   3Pdyz   3Pdz2   3Pdxz   3Pdx2-y2
   1  4.008   0.571   0.605   0.174   0.174   0.174   0.579   0.579   0.579
              0.135   0.135   0.085   0.135   0.085
   2  3.994   0.649   0.565   0.207   0.207   0.207   0.544   0.544   0.544
              0.125   0.125   0.076   0.125   0.076
   3  3.998   0.626   0.577   0.190   0.218   0.190   0.558   0.540   0.558
              0.129   0.127   0.076   0.127   0.080
   4  4.002   0.602   0.589   0.195   0.172   0.195   0.560   0.574   0.560
              0.130   0.132   0.083   0.132   0.079
   5  3.998   0.626   0.577   0.218   0.190   0.190   0.540   0.558   0.558
              0.127   0.127   0.079   0.129   0.077
   6  4.002   0.602   0.589   0.172   0.195   0.195   0.574   0.560   0.560
              0.132   0.132   0.080   0.130   0.082
   7  3.998   0.626   0.577   0.190   0.190   0.218   0.558   0.558   0.540
              0.127   0.129   0.079   0.127   0.077
   8  4.002   0.602   0.589   0.195   0.195   0.172   0.560   0.560   0.574
              0.132   0.130   0.080   0.132   0.082

mulliken: Qtot =       32.000

* Maximum dynamic memory allocated =    88 MB

siesta:                 ==============================
                            Begin CG move =      5
                        ==============================

outcoor: Atomic coordinates (Ang):                          
   -0.06351586   -0.06351575   -0.06351657   1       1  Si
    1.30512790    1.30512792    1.30512857   1       2  Si
    2.67768101    2.67768104   -0.05884473   1       3  Si
    4.04535045    4.04535038    1.31286780   1       4  Si
    2.67768101   -0.05884467    2.67768063   1       5  Si
    4.04535015    1.31286789    4.04535086   1       6  Si
   -0.05884466    2.67768104    2.67768068   1       7  Si
    1.31286799    4.04535015    4.04535080   1       8  Si
 Kpoints in:          108 . Kpoints trimmed:          108

siesta: k-grid: Number of k-points =   108
siesta: k-grid: Cutoff (effective) =    16.383 Ang
siesta: k-grid: Supercell and displacements
siesta: k-grid:    0   6   0      0.500
siesta: k-grid:    6   0   0      0.500
siesta: k-grid:    0   0   6      0.500
Naive supercell factors:     5    5    5

superc: Internal auxiliary supercell:     5 x     5 x     5  =     125
superc: Number of atoms, orbitals, and projectors:   1000  13000  16000

outcell: Unit cell vectors (Ang):
        5.461053    0.004553    0.004553
        0.004553    5.461053    0.004553
        0.004553    0.004553    5.461053

outcell: Cell vector modules (Ang)   :    5.461057    5.461057    5.461057
outcell: Cell angles (23,13,12) (deg):     89.9044     89.9044     89.9044
outcell: Cell volume (Ang**3)        :    162.8652
New_DM. Step:     6
Re-using DM from previous geometry...
Re-using DM without extrapolation (not allowed)
Density Matrix sparsity pattern changed.

InitMesh: MESH =    36 x    36 x    36 =       46656
InitMesh: Mesh cutoff (required, used) =   100.000   120.104 Ry

siesta: iscf   Eharris(eV)      E_KS(eV)   FreeEng(eV)   dDmax  Ef(eV)
siesta:    1     -861.9907     -860.7322     -860.7322  0.0400 -5.3109
siesta:    2     -862.0699     -861.9105     -861.9105  0.0347 -5.3197
siesta:    3     -861.9637     -861.7761     -861.7761  0.0081 -5.3177
siesta:    4     -861.9633     -861.9424     -861.9424  0.0018 -5.3190
siesta:    5     -861.9632     -861.9513     -861.9513  0.0011 -5.3184
siesta:    6     -861.9632     -861.9587     -861.9587  0.0001 -5.3176

siesta: E_KS(eV) =             -861.9599

siesta: Atomic forces (eV/Ang):
----------------------------------------
   Tot    0.010954    0.010956    0.010990
----------------------------------------
   Max    0.122342
   Res    0.071599    sqrt( Sum f_i^2 / 3N )
----------------------------------------
   Max    0.122342    constrained

Stress-tensor-Voigt (kbar):        9.74        9.74        9.74        2.22        2.21        2.21
(Free)E + p*V (eV/cell)     -862.9500
Target enthalpy (eV/cell)     -861.9599

siesta: Stress tensor (static) (eV/Ang**3):
         0.006079    0.001383    0.001382
         0.001383    0.006079    0.001382
         0.001382    0.001382    0.006079

siesta: Pressure (static):         -9.73987499  kBar

siesta: Stress tensor (total) (eV/Ang**3):
         0.006079    0.001383    0.001382
         0.001383    0.006079    0.001382
         0.001382    0.001382    0.006079

siesta: Pressure (total):         -9.73987499  kBar

mulliken: Mulliken Atomic and Orbital Populations:

Species: Si                  
Atom  Qatom  Qorb
               3s      3s      3py     3pz     3px     3py     3pz     3px     
               3Pdxy   3Pdyz   3Pdz2   3Pdxz   3Pdx2-y2
   1  4.001   0.639   0.569   0.226   0.226   0.226   0.531   0.531   0.531
              0.124   0.124   0.075   0.124   0.075
   2  3.999   0.655   0.561   0.233   0.233   0.233   0.523   0.523   0.523
              0.122   0.122   0.073   0.122   0.073
   3  4.000   0.647   0.565   0.229   0.233   0.229   0.527   0.525   0.527
              0.123   0.123   0.074   0.123   0.074
   4  4.000   0.642   0.568   0.230   0.224   0.230   0.528   0.532   0.528
              0.123   0.124   0.075   0.124   0.074
   5  4.000   0.647   0.565   0.233   0.229   0.229   0.525   0.527   0.527
              0.123   0.123   0.074   0.123   0.074
   6  4.000   0.642   0.568   0.224   0.230   0.230   0.532   0.528   0.528
              0.124   0.124   0.074   0.123   0.075
   7  4.000   0.647   0.565   0.229   0.229   0.233   0.527   0.527   0.525
              0.123   0.123   0.074   0.123   0.074
   8  4.000   0.642   0.568   0.230   0.230   0.224   0.528   0.528   0.532
              0.124   0.123   0.074   0.124   0.075

mulliken: Qtot =       32.000

cgvc: Finished line minimization    2.  Mean atomic displacement =    0.0649

* Maximum dynamic memory allocated =    89 MB

siesta:                 ==============================
                            Begin CG move =      6
                        ==============================

outcoor: Atomic coordinates (Ang):                          
   -0.04296532   -0.04296485   -0.04296313   1       1  Si
    1.30750591    1.30750493    1.30750541   1       2  Si
    2.64579184    2.64579165   -0.04163980   1       3  Si
    3.99767126    3.99767116    1.30318297   1       4  Si
    2.64579371   -0.04164124    2.64579656   1       5  Si
    3.99767186    1.30318278    3.99767226   1       6  Si
   -0.04164206    2.64579344    2.64579621   1       7  Si
    1.30318288    3.99767226    3.99767314   1       8  Si
 Kpoints in:          108 . Kpoints trimmed:          108

siesta: k-grid: Number of k-points =   108
siesta: k-grid: Cutoff (effective) =    16.290 Ang
siesta: k-grid: Supercell and displacements
siesta: k-grid:    0   6   0      0.500
siesta: k-grid:    6   0   0      0.500
siesta: k-grid:    0   0   6      0.500
Naive supercell factors:     5    5    5

superc: Internal auxiliary supercell:     5 x     5 x     5  =     125
superc: Number of atoms, orbitals, and projectors:   1000  13000  16000

outcell: Unit cell vectors (Ang):
        5.430146   -0.002465   -0.002463
       -0.002465    5.430146   -0.002463
       -0.002463   -0.002463    5.430147

outcell: Cell vector modules (Ang)   :    5.430148    5.430147    5.430148
outcell: Cell angles (23,13,12) (deg):     90.0520     90.0520     90.0520
outcell: Cell volume (Ang**3)        :    160.1159
New_DM. Step:     7
Re-using DM from previous geometry...
Re-using DM without extrapolation (not allowed)
Density Matrix sparsity pattern changed.

InitMesh: MESH =    36 x    36 x    36 =       46656
InitMesh: Mesh cutoff (required, used) =   100.000   121.474 Ry

siesta: iscf   Eharris(eV)      E_KS(eV)   FreeEng(eV)   dDmax  Ef(eV)
siesta:    1     -861.9651     -862.4096     -862.4096  0.0203 -5.3604
siesta:    2     -862.0694     -861.8655     -861.8655  0.0462 -5.3746
siesta:    3     -861.9324     -862.0769     -862.0769  0.0128 -5.3642
siesta:    4     -861.9324     -861.9204     -861.9204  0.0008 -5.3620

siesta: E_KS(eV) =             -861.9222

siesta: Atomic forces (eV/Ang):
----------------------------------------
   Tot   -0.003816   -0.003822   -0.003861
----------------------------------------
   Max    0.382501
   Res    0.243173    sqrt( Sum f_i^2 / 3N )
----------------------------------------
   Max    0.382501    constrained

Stress-tensor-Voigt (kbar):       -6.38       -6.38       -6.38       -3.72       -3.72       -3.72
(Free)E + p*V (eV/cell)     -861.2849
Target enthalpy (eV/cell)     -861.9222

siesta: Stress tensor (static) (eV/Ang**3):
        -0.003980   -0.002324   -0.002323
        -0.002324   -0.003980   -0.002322
        -0.002323   -0.002322   -0.003980

siesta: Pressure (static):          6.37726438  kBar

siesta: Stress tensor (total) (eV/Ang**3):
        -0.003980   -0.002324   -0.002323
        -0.002324   -0.003980   -0.002322
        -0.002323   -0.002322   -0.003980

siesta: Pressure (total):          6.37726438  kBar

mulliken: Mulliken Atomic and Orbital Populations:

Species: Si                  
Atom  Qatom  Qorb
               3s      3s      3py     3pz     3px     3py     3pz     3px     
               3Pdxy   3Pdyz   3Pdz2   3Pdxz   3Pdx2-y2
   1  3.998   0.659   0.560   0.225   0.225   0.225   0.530   0.530   0.530
              0.123   0.123   0.074   0.123   0.074
   2  4.005   0.600   0.590   0.200   0.200   0.200   0.556   0.556   0.556
              0.130   0.130   0.080   0.130   0.080
   3  4.001   0.623   0.578   0.215   0.198   0.215   0.542   0.553   0.542
              0.126   0.127   0.079   0.127   0.076
   4  3.998   0.643   0.568   0.211   0.230   0.211   0.541   0.529   0.541
              0.126   0.124   0.074   0.124   0.077
   5  4.001   0.623   0.578   0.198   0.215   0.215   0.553   0.542   0.542
              0.127   0.127   0.077   0.126   0.078
   6  3.998   0.643   0.568   0.230   0.211   0.211   0.529   0.541   0.541
              0.124   0.124   0.076   0.126   0.075
   7  4.001   0.623   0.578   0.215   0.215   0.198   0.542   0.542   0.553
              0.127   0.126   0.077   0.127   0.078
   8  3.998   0.643   0.568   0.211   0.211   0.230   0.541   0.541   0.529
              0.124   0.126   0.076   0.124   0.075

mulliken: Qtot =       32.000

* Maximum dynamic memory allocated =    89 MB

siesta:                 ==============================
                            Begin CG move =      7
                        ==============================

outcoor: Atomic coordinates (Ang):                          
   -0.05744290   -0.05744268   -0.05744275   1       1  Si
    1.30584917    1.30584889    1.30584949   1       2  Si
    2.66829770    2.66829767   -0.05376844   1       3  Si
    4.03131664    4.03131655    1.31002194   1       4  Si
    2.66829826   -0.05376882    2.66829883   1       5  Si
    4.03131660    1.31002194    4.03131722   1       6  Si
   -0.05376906    2.66829820    2.66829876   1       7  Si
    1.31002204    4.03131672    4.03131743   1       8  Si
 Kpoints in:          108 . Kpoints trimmed:          108

siesta: k-grid: Number of k-points =   108
siesta: k-grid: Cutoff (effective) =    16.356 Ang
siesta: k-grid: Supercell and displacements
siesta: k-grid:    0   6   0      0.500
siesta: k-grid:    6   0   0      0.500
siesta: k-grid:    0   0   6      0.500
Naive supercell factors:     5    5    5

superc: Internal auxiliary supercell:     5 x     5 x     5  =     125
superc: Number of atoms, orbitals, and projectors:   1000  13000  16000

outcell: Unit cell vectors (Ang):
        5.451971    0.002491    0.002491
        0.002491    5.451971    0.002491
        0.002491    0.002491    5.451971

outcell: Cell vector modules (Ang)   :    5.451973    5.451972    5.451973
outcell: Cell angles (23,13,12) (deg):     89.9476     89.9476     89.9476
outcell: Cell volume (Ang**3)        :    162.0543
New_DM. Step:     8
Re-using DM from previous geometry...
Re-using DM without extrapolation (not allowed)
Density Matrix sparsity pattern changed.

InitMesh: MESH =    36 x    36 x    36 =       46656
InitMesh: Mesh cutoff (required, used) =   100.000   120.504 Ry

siesta: iscf   Eharris(eV)      E_KS(eV)   FreeEng(eV)   dDmax  Ef(eV)
siesta:    1     -861.9872     -861.6005     -861.6005  0.0156 -5.3240
siesta:    2     -862.0414     -861.9355     -861.9355  0.0299 -5.3293
siesta:    3     -861.9702     -861.8329     -861.8329  0.0096 -5.3247
siesta:    4     -861.9702     -861.9619     -861.9619  0.0006 -5.3260

siesta: E_KS(eV) =             -861.9644

siesta: Atomic forces (eV/Ang):
----------------------------------------
   Tot    0.002834    0.002829    0.002828
----------------------------------------
   Max    0.029311
   Res    0.022037    sqrt( Sum f_i^2 / 3N )
----------------------------------------
   Max    0.029311    constrained

Stress-tensor-Voigt (kbar):        4.83        4.83        4.83        0.58        0.58        0.58
(Free)E + p*V (eV/cell)     -862.4529
Target enthalpy (eV/cell)     -861.9644

siesta: Stress tensor (static) (eV/Ang**3):
         0.003014    0.000359    0.000359
         0.000359    0.003014    0.000359
         0.000359    0.000359    0.003014

siesta: Pressure (static):         -4.82980194  kBar

siesta: Stress tensor (total) (eV/Ang**3):
         0.003014    0.000359    0.000359
         0.000359    0.003014    0.000359
         0.000359    0.000359    0.003014

siesta: Pressure (total):         -4.82980194  kBar

mulliken: Mulliken Atomic and Orbital Populations:

Species: Si                  
Atom  Qatom  Qorb
               3s      3s      3py     3pz     3px     3py     3pz     3px     
               3Pdxy   3Pdyz   3Pdz2   3Pdxz   3Pdx2-y2
   1  4.000   0.645   0.566   0.226   0.226   0.226   0.530   0.530   0.530
              0.123   0.123   0.075   0.123   0.075
   2  4.000   0.640   0.569   0.224   0.224   0.224   0.533   0.533   0.533
              0.124   0.124   0.075   0.124   0.075
   3  4.000   0.641   0.568   0.225   0.223   0.225   0.532   0.533   0.532
              0.124   0.124   0.075   0.124   0.075
   4  4.000   0.643   0.567   0.225   0.226   0.225   0.532   0.531   0.532
              0.124   0.124   0.075   0.124   0.075
   5  4.000   0.641   0.568   0.223   0.225   0.225   0.533   0.532   0.532
              0.124   0.124   0.075   0.124   0.075
   6  4.000   0.643   0.567   0.226   0.225   0.225   0.531   0.532   0.532
              0.124   0.124   0.075   0.124   0.075
   7  4.000   0.641   0.568   0.225   0.225   0.223   0.532   0.532   0.533
              0.124   0.124   0.075   0.124   0.075
   8  4.000   0.643   0.567   0.225   0.225   0.226   0.532   0.532   0.531
              0.124   0.124   0.075   0.124   0.075

mulliken: Qtot =       32.000

* Maximum dynamic memory allocated =    89 MB

outcoor: Relaxed atomic coordinates (Ang):                  
   -0.05744290   -0.05744268   -0.05744275   1       1  Si
    1.30584917    1.30584889    1.30584949   1       2  Si
    2.66829770    2.66829767   -0.05376844   1       3  Si
    4.03131664    4.03131655    1.31002194   1       4  Si
    2.66829826   -0.05376882    2.66829883   1       5  Si
    4.03131660    1.31002194    4.03131722   1       6  Si
   -0.05376906    2.66829820    2.66829876   1       7  Si
    1.31002204    4.03131672    4.03131743   1       8  Si

outcell: Unit cell vectors (Ang):
        5.451971    0.002491    0.002491
        0.002491    5.451971    0.002491
        0.002491    0.002491    5.451971

outcell: Cell vector modules (Ang)   :    5.451973    5.451972    5.451973
outcell: Cell angles (23,13,12) (deg):     89.9476     89.9476     89.9476
outcell: Cell volume (Ang**3)        :    162.0543

coxmol: Writing XMOL coordinates into file si.xyz                                                          
Writing WFSX for selected k-points in si.selected.WFSX

writewave: Wave Functions Coefficients

     Number of k-points =        1
        Number of Spins =        1
   Number of basis orbs =      104


                                                                  ******
            k-point =        1    0.000000  0.000000  0.000000
     Spin component =        1
 Num. wavefunctions =       50
Use readwfsx utility to print wavefunction coefficients from WFSX file
Computing bands...

siesta: Band k vectors (Bohr**-1):
  ik           k
   1    0.296868    0.296868    0.296868
   2    0.284993    0.284993    0.284993
   3    0.273118    0.273118    0.273118
   4    0.261243    0.261243    0.261243
   5    0.249369    0.249369    0.249369
   6    0.237494    0.237494    0.237494
   7    0.225619    0.225619    0.225619
   8    0.213745    0.213745    0.213745
   9    0.201870    0.201870    0.201870
  10    0.189995    0.189995    0.189995
  11    0.178121    0.178121    0.178121
  12    0.166246    0.166246    0.166246
  13    0.154371    0.154371    0.154371
  14    0.142496    0.142496    0.142496
  15    0.130622    0.130622    0.130622
  16    0.118747    0.118747    0.118747
  17    0.106872    0.106872    0.106872
  18    0.094998    0.094998    0.094998
  19    0.083123    0.083123    0.083123
  20    0.071248    0.071248    0.071248
  21    0.059374    0.059374    0.059374
  22    0.047499    0.047499    0.047499
  23    0.035624    0.035624    0.035624
  24    0.023749    0.023749    0.023749
  25    0.011875    0.011875    0.011875
  26    0.000000    0.000000    0.000000
  27    0.019791    0.000000    0.000000
  28    0.039582    0.000000    0.000000
  29    0.059374    0.000000    0.000000
  30    0.079165    0.000000    0.000000
  31    0.098956    0.000000    0.000000
  32    0.118747    0.000000    0.000000
  33    0.138538    0.000000    0.000000
  34    0.158329    0.000000    0.000000
  35    0.178121    0.000000    0.000000
  36    0.197912    0.000000    0.000000
  37    0.217703    0.000000    0.000000
  38    0.237494    0.000000    0.000000
  39    0.257285    0.000000    0.000000
  40    0.277076    0.000000    0.000000
  41    0.296868    0.000000    0.000000
  42    0.316659    0.000000    0.000000
  43    0.336450    0.000000    0.000000
  44    0.356241    0.000000    0.000000
  45    0.376032    0.000000    0.000000
  46    0.395823    0.000000    0.000000
  47    0.415615    0.000000    0.000000
  48    0.435406    0.000000    0.000000
  49    0.455197    0.000000    0.000000
  50    0.474988    0.000000    0.000000
  51    0.494779    0.000000    0.000000
  52    0.514571    0.000000    0.000000
  53    0.534362    0.000000    0.000000
  54    0.554153    0.000000    0.000000
  55    0.573944    0.000000    0.000000
  56    0.593735    0.000000    0.000000
  57    0.593735    0.014843    0.014843
  58    0.593735    0.029687    0.029687
  59    0.593735    0.044530    0.044530
  60    0.593735    0.059374    0.059374
  61    0.593735    0.074217    0.074217
  62    0.593735    0.089060    0.089060
  63    0.593735    0.103904    0.103904
  64    0.593735    0.118747    0.118747
  65    0.593735    0.133590    0.133590
  66    0.593735    0.148434    0.148434
  67    0.576771    0.144193    0.144193
  68    0.559807    0.139952    0.139952
  69    0.542844    0.135711    0.135711
  70    0.525880    0.131470    0.131470
  71    0.508916    0.127229    0.127229
  72    0.491952    0.122988    0.122988
  73    0.474988    0.118747    0.118747
  74    0.458024    0.114506    0.114506
  75    0.441060    0.110265    0.110265
  76    0.424097    0.106024    0.106024
  77    0.407133    0.101783    0.101783
  78    0.390169    0.097542    0.097542
  79    0.373205    0.093301    0.093301
  80    0.356241    0.089060    0.089060
  81    0.339277    0.084819    0.084819
  82    0.322313    0.080578    0.080578
  83    0.305350    0.076337    0.076337
  84    0.288386    0.072096    0.072096
  85    0.271422    0.067855    0.067855
  86    0.254458    0.063614    0.063614
  87    0.237494    0.059374    0.059374
  88    0.220530    0.055133    0.055133
  89    0.203566    0.050892    0.050892
  90    0.186602    0.046651    0.046651
  91    0.169639    0.042410    0.042410
  92    0.152675    0.038169    0.038169
  93    0.135711    0.033928    0.033928
  94    0.118747    0.029687    0.029687
  95    0.101783    0.025446    0.025446
  96    0.084819    0.021205    0.021205
  97    0.067855    0.016964    0.016964
  98    0.050892    0.012723    0.012723
  99    0.033928    0.008482    0.008482
 100    0.016964    0.004241    0.004241
 101    0.000000    0.000000    0.000000

siesta: Band energies (eV):
  ik is    eps
   1  1 -15.29 -15.27 -15.27 -15.26 -12.65 -12.64 -12.64 -12.63  -6.90  -6.90
         -6.90  -6.89  -6.89  -6.88  -6.86  -6.86  -4.21  -4.21  -4.21  -4.21
         -2.22  -2.22  -2.22  -2.20  -2.20  -2.20  -2.19  -2.19   3.14   3.15
          3.15   3.19   5.24   5.24   5.24   5.32   5.32   5.46   5.46   5.46
          5.66   5.79   5.79   5.79   5.98   5.98   5.99   6.07   6.07   6.07
          6.09   6.09   8.23   8.23   8.23   8.23  16.41  16.46  16.46  16.46
         17.46  17.46  17.47  17.47  17.47  17.52  17.52  17.52  19.35  19.35
         19.36  19.38  19.38  19.38  19.41  19.41  20.63  20.63  20.63  20.71
         29.39  29.39  29.39  29.41  29.41  29.41  29.43  29.43  69.63  70.07
         70.07  70.12  71.60  71.60  71.66  72.62  72.67  72.67  73.74  73.74
        114.82 114.82 114.83 116.16
   2  1 -15.33 -15.26 -15.26 -15.26 -12.63 -12.63 -12.63 -12.56  -6.99  -6.99
         -6.99  -6.91  -6.91  -6.91  -6.86  -6.86  -4.20  -4.12  -4.12  -4.12
         -2.24  -2.24  -2.24  -2.19  -2.19  -2.16  -2.15  -2.15   3.11   3.13
          3.13   3.18   4.79   4.79   4.79   4.96   4.96   5.43   5.43   5.43
          5.54   5.86   5.86   5.86   6.03   6.03   6.03   6.47   6.47   6.55
          6.55   6.55   8.26   8.26   8.26   8.32  16.32  16.43  16.43  16.43
         17.30  17.30  17.36  17.36  17.36  17.48  17.48  17.48  19.31  19.31
         19.31  19.37  19.37  19.37  19.52  19.52  20.03  20.03  20.03  20.89
         29.26  29.26  29.26  29.41  29.41  29.41  29.47  29.47  66.74  66.74
         66.76  67.82  69.99  70.05  70.05  70.59  70.59  70.62  73.49  73.49
        109.42 109.42 109.45 113.26
   3  1 -15.42 -15.26 -15.26 -15.25 -12.61 -12.60 -12.60 -12.44  -7.15  -7.15
         -7.15  -6.95  -6.95  -6.95  -6.85  -6.85  -4.19  -3.97  -3.97  -3.97
         -2.27  -2.27  -2.27  -2.18  -2.18  -2.07  -2.07  -2.07   3.04   3.05
          3.05   3.16   4.40   4.40   4.40   4.58   4.58   5.35   5.40   5.40
          5.40   5.93   5.93   5.93   6.10   6.10   6.10   6.90   6.90   7.08
          7.08   7.08   8.33   8.33   8.33   8.46  16.18  16.34  16.34  16.34
         17.02  17.02  17.16  17.16  17.16  17.43  17.43  17.43  19.14  19.15
         19.15  19.21  19.21  19.21  19.43  19.43  19.43  19.70  19.70  21.19
         28.97  28.97  28.97  29.50  29.50  29.50  29.54  29.54  60.73  60.73
         60.74  64.51  66.19  66.24  66.24  71.09  71.09  71.11  73.10  73.10
        100.87 100.87 100.90 109.10
   4  1 -15.52 -15.24 -15.24 -15.24 -12.57 -12.57 -12.57 -12.27  -7.34  -7.34
         -7.34  -7.01  -7.01  -7.01  -6.83  -6.83  -4.17  -3.80  -3.80  -3.80
         -2.30  -2.30  -2.30  -2.17  -2.17  -1.96  -1.96  -1.96   2.86   2.86
          2.86   3.13   4.12   4.12   4.12   4.21   4.21   5.13   5.35   5.36
          5.36   6.03   6.03   6.03   6.18   6.18   6.18   7.36   7.36   7.58
          7.59   7.59   8.47   8.47   8.47   8.60  16.04  16.13  16.13  16.13
         16.68  16.68  16.89  16.89  16.89  17.39  17.39  17.39  18.46  18.46
         18.46  19.06  19.06  19.06  19.40  19.40  19.40  19.89  19.89  21.56
         28.57  28.57  28.57  29.64  29.64  29.70  29.70  29.70  54.68  54.68
         54.69  60.13  62.37  62.40  62.40  71.65  71.65  71.67  72.55  72.55
         92.52  92.52  92.53 104.89
   5  1 -15.65 -15.23 -15.23 -15.22 -12.53 -12.53 -12.53 -12.07  -7.56  -7.56
         -7.56  -7.08  -7.08  -7.08  -6.81  -6.81  -4.14  -3.63  -3.63  -3.63
         -2.29  -2.29  -2.29  -2.15  -2.15  -1.81  -1.81  -1.81   2.54   2.55
          2.55   3.09   3.85   3.85   4.00   4.00   4.00   4.90   5.32   5.32
          5.32   6.15   6.15   6.15   6.28   6.28   6.28   7.82   7.82   7.98
          7.98   7.98   8.72   8.75   8.75   8.75  15.80  15.80  15.80  15.94
         16.30  16.30  16.56  16.56  16.56  17.35  17.35  17.35  18.01  18.01
         18.01  18.87  18.87  18.87  19.42  19.42  19.42  20.08  20.08  21.98
         28.05  28.05  28.05  29.76  29.76  30.00  30.00  30.00  49.11  49.11
         49.12  55.29  59.20  59.22  59.22  71.86  71.86  72.01  72.01  72.03
         86.44  86.44  86.45 101.18
   6  1 -15.79 -15.20 -15.20 -15.20 -12.47 -12.47 -12.47 -11.83  -7.80  -7.80
         -7.80  -7.17  -7.17  -7.17  -6.78  -6.78  -4.11  -3.52  -3.52  -3.52
         -2.22  -2.22  -2.22  -2.13  -2.13  -1.63  -1.63  -1.63   2.14   2.14
          2.14   3.02   3.51   3.51   3.99   3.99   3.99   4.69   5.28   5.28
          5.28   6.28   6.28   6.28   6.39   6.39   6.39   8.21   8.21   8.21
          8.29   8.29   8.77   9.21   9.21   9.21  15.39  15.39  15.39  15.90
         15.90  15.91  16.18  16.18  16.19  17.24  17.24  17.24  17.84  17.84
         17.84  18.64  18.64  18.64  19.46  19.46  19.46  20.26  20.26  22.42
         27.46  27.46  27.46  29.90  29.90  30.39  30.39  30.39  44.28  44.28
         44.29  50.58  56.91  56.93  56.93  71.09  71.09  71.85  71.85  71.87
         82.97  82.97  82.97  97.99
   7  1 -15.93 -15.18 -15.18 -15.18 -12.41 -12.41 -12.41 -11.57  -8.04  -8.04
         -8.03  -7.26  -7.26  -7.26  -6.75  -6.75  -4.07  -3.49  -3.49  -3.49
         -2.11  -2.11  -2.05  -2.05  -2.05  -1.42  -1.42  -1.42   1.69   1.70
          1.70   2.90   3.19   3.19   4.03   4.03   4.03   4.54   5.25   5.25
          5.25   6.42   6.42   6.42   6.50   6.50   6.50   8.37   8.37   8.37
          8.75   8.75   8.76   9.78   9.78   9.78  14.97  14.97  14.97  15.49
         15.49  15.79  15.79  15.79  15.96  17.06  17.06  17.06  17.88  17.88
         17.88  18.37  18.38  18.38  19.54  19.54  19.54  20.43  20.43  22.88
         26.81  26.81  26.81  30.05  30.05  30.85  30.85  30.86  40.29  40.29
         40.30  46.40  55.46  55.47  55.47  70.31  70.31  71.05  71.05  71.06
         81.53  81.53  81.53  95.09
   8  1 -16.08 -15.15 -15.15 -15.14 -12.35 -12.35 -12.35 -11.29  -8.27  -8.27
         -8.27  -7.36  -7.36  -7.36  -6.71  -6.71  -4.02  -3.53  -3.53  -3.53
         -2.08  -2.08  -1.80  -1.80  -1.80  -1.18  -1.18  -1.18   1.23   1.23
          1.23   2.73   2.89   2.89   4.10   4.10   4.10   4.44   5.23   5.23
          5.23   6.55   6.55   6.55   6.61   6.61   6.61   8.51   8.51   8.51
          8.66   9.19   9.19  10.37  10.37  10.37  14.57  14.57  14.57  15.10
         15.10  15.38  15.38  15.39  16.08  16.89  16.89  16.89  17.98  17.98
         17.98  18.07  18.07  18.07  19.66  19.66  19.66  20.57  20.57  23.36
         26.14  26.14  26.14  30.21  30.21  31.35  31.35  31.36  37.09  37.09
         37.09  42.91  54.71  54.71  54.71  69.58  69.58  69.85  69.85  69.85
         81.18  81.19  81.19  92.24
   9  1 -16.22 -15.11 -15.11 -15.11 -12.28 -12.28 -12.28 -11.00  -8.50  -8.50
         -8.50  -7.46  -7.46  -7.46  -6.66  -6.66  -3.97  -3.62  -3.61  -3.61
         -2.07  -2.07  -1.49  -1.49  -1.49  -0.93  -0.93  -0.93   0.76   0.77
          0.77   2.51   2.62   2.62   4.20   4.20   4.20   4.41   5.21   5.21
          5.21   6.68   6.68   6.68   6.72   6.72   6.72   8.48   8.66   8.66
          8.66   9.59   9.59  10.96  10.96  10.96  14.17  14.17  14.18  14.76
         14.76  14.98  14.98  14.98  16.24  16.75  16.75  16.75  17.74  17.74
         17.74  18.11  18.11  18.11  19.82  19.82  19.82  20.68  20.68  23.86
         25.46  25.46  25.46  30.39  30.39  31.78  31.78  31.78  34.63  34.63
         34.63  40.16  54.50  54.50  54.50  68.41  68.41  68.43  69.04  69.04
         81.18  81.18  81.19  89.28
  10  1 -16.36 -15.06 -15.06 -15.06 -12.22 -12.21 -12.21 -10.69  -8.71  -8.71
         -8.71  -7.56  -7.56  -7.56  -6.61  -6.61  -3.92  -3.72  -3.72  -3.72
         -2.06  -2.06  -1.15  -1.15  -1.15  -0.65  -0.65  -0.65   0.30   0.30
          0.30   2.26   2.38   2.38   4.30   4.30   4.30   4.43   5.21   5.21
          5.21   6.80   6.80   6.80   6.83   6.83   6.83   8.23   8.83   8.83
          8.83   9.92   9.92  11.53  11.54  11.54  13.78  13.78  13.78  14.50
         14.50  14.57  14.57  14.57  16.41  16.66  16.66  16.66  17.38  17.39
         17.39  18.24  18.24  18.24  20.02  20.02  20.02  20.78  20.78  24.37
         24.78  24.78  24.79  30.59  30.59  31.52  31.52  31.52  33.33  33.33
         33.33  38.10  54.70  54.71  54.71  66.75  66.75  66.76  68.73  68.73
         81.11  81.12  81.12  86.10
  11  1 -16.50 -15.01 -15.01 -15.01 -12.15 -12.15 -12.15 -10.36  -8.90  -8.90
         -8.90  -7.67  -7.66  -7.66  -6.55  -6.55  -3.86  -3.84  -3.84  -3.84
         -2.06  -2.06  -0.79  -0.79  -0.79  -0.36  -0.35  -0.35  -0.16  -0.16
         -0.16   1.97   2.18   2.18   4.41   4.41   4.41   4.49   5.21   5.21
          5.21   6.90   6.90   6.90   6.93   6.93   6.93   7.93   9.03   9.03
          9.03  10.13  10.13  12.08  12.08  12.08  13.39  13.39  13.40  14.17
         14.17  14.17  14.37  14.37  16.57  16.61  16.61  16.62  17.01  17.02
         17.02  18.36  18.36  18.36  20.26  20.26  20.26  20.86  20.86  24.13
         24.13  24.13  24.85  30.20  30.20  30.21  30.81  30.81  33.41  33.41
         33.41  36.72  55.21  55.22  55.22  64.68  64.68  64.69  68.75  68.75
         80.82  80.82  80.82  82.66
  12  1 -16.63 -14.96 -14.96 -14.96 -12.10 -12.10 -12.10 -10.03  -9.07  -9.07
         -9.07  -7.76  -7.76  -7.76  -6.49  -6.49  -3.97  -3.97  -3.97  -3.78
         -2.07  -2.07  -0.66  -0.66  -0.66  -0.36  -0.36  -0.36  -0.04  -0.04
         -0.04   1.68   2.00   2.00   4.52   4.52   4.52   4.57   5.22   5.22
          5.22   6.98   6.98   6.98   7.02   7.02   7.02   7.60   9.28   9.28
          9.28  10.18  10.18  12.51  12.51  12.51  13.09  13.09  13.09  13.77
         13.77  13.77  14.42  14.42  16.59  16.59  16.59  16.64  16.65  16.65
         16.74  18.45  18.45  18.45  20.52  20.52  20.52  20.92  20.92  23.49
         23.49  23.50  25.20  28.87  28.87  28.87  31.06  31.06  33.68  33.68
         33.68  36.01  55.95  55.95  55.95  62.10  62.10  62.11  69.20  69.20
         79.03  80.25  80.25  80.25
  13  1 -16.75 -14.89 -14.89 -14.89 -12.07 -12.07 -12.07  -9.69  -9.20  -9.20
         -9.20  -7.86  -7.86  -7.86  -6.43  -6.43  -4.09  -4.09  -4.09  -3.71
         -2.10  -2.10  -1.09  -1.09  -1.09   0.02   0.02   0.02   0.28   0.28
          0.28   1.37   1.87   1.87   4.62   4.62   4.62   4.66   5.23   5.23
          5.23   7.04   7.04   7.04   7.10   7.10   7.10   7.24   9.57   9.57
          9.57  10.07  10.07  12.39  12.39  12.39  13.30  13.30  13.30  13.36
         13.36  13.36  14.64  14.64  16.28  16.28  16.28  16.62  16.63  16.63
         16.87  18.53  18.53  18.53  20.80  20.80  20.80  20.96  20.96  22.88
         22.88  22.89  25.30  27.71  27.71  27.71  31.36  31.36  33.84  33.84
         33.84  35.96  56.84  56.84  56.84  59.02  59.02  59.02  70.16  70.16
         75.35  79.44  79.44  79.44
  14  1 -16.87 -14.83 -14.83 -14.82 -12.06 -12.06 -12.06  -9.33  -9.30  -9.30
         -9.30  -7.95  -7.95  -7.95  -6.36  -6.36  -4.21  -4.21  -4.21  -3.63
         -2.14  -2.14  -1.53  -1.53  -1.53   0.42   0.42   0.42   0.62   0.62
          0.62   1.05   1.78   1.78   4.72   4.72   4.72   4.75   5.26   5.26
          5.26   6.89   7.09   7.09   7.09   7.17   7.17   7.17   9.83   9.83
          9.92   9.92   9.92  12.00  12.00  12.00  12.94  12.94  12.94  13.75
         13.75  13.75  15.01  15.01  15.95  15.95  15.95  16.68  16.68  16.68
         17.00  18.58  18.58  18.58  20.98  20.98  21.09  21.09  21.09  22.30
         22.30  22.30  25.09  26.73  26.73  26.73  31.71  31.71  33.82  33.82
         33.82  36.49  55.60  55.60  55.60  57.83  57.84  57.84  71.73  71.73
         71.83  78.45  78.45  78.45
  15  1 -16.98 -14.75 -14.75 -14.75 -12.08 -12.08 -12.08  -9.36  -9.36  -9.36
         -8.97  -8.04  -8.04  -8.04  -6.29  -6.29  -4.33  -4.32  -4.32  -3.55
         -2.20  -2.20  -1.95  -1.95  -1.95   0.73   0.83   0.83   0.83   0.97
          0.97   0.97   1.73   1.73   4.80   4.82   4.82   4.83   5.29   5.29
          5.29   6.56   7.11   7.11   7.11   7.23   7.23   7.23   9.52   9.52
         10.29  10.29  10.29  11.58  11.58  11.58  12.50  12.50  12.50  14.20
         14.20  14.20  15.47  15.47  15.66  15.66  15.66  16.76  16.76  16.76
         17.14  18.60  18.60  18.60  20.99  20.99  21.36  21.36  21.36  21.74
         21.74  21.74  24.58  25.90  25.90  25.90  32.10  32.10  33.62  33.63
         33.63  37.35  52.14  52.14  52.14  58.89  58.90  58.90  68.79  74.02
         74.02  77.34  77.34  77.34
  16  1 -17.08 -14.67 -14.67 -14.66 -12.12 -12.12 -12.12  -9.37  -9.37  -9.37
         -8.61  -8.12  -8.12  -8.12  -6.21  -6.21  -4.43  -4.43  -4.43  -3.46
         -2.36  -2.36  -2.36  -2.28  -2.28   0.40   1.25   1.25   1.25   1.33
          1.33   1.33   1.71   1.71   4.82   4.91   4.91   4.91   5.33   5.33
          5.33   6.30   7.12   7.12   7.12   7.27   7.27   7.27   9.16   9.16
         10.62  10.62  10.62  11.25  11.25  11.25  12.04  12.04  12.04  14.63
         14.63  14.63  15.42  15.42  15.42  15.97  15.97  16.85  16.85  16.85
         17.28  18.61  18.61  18.61  20.99  20.99  21.21  21.21  21.21  21.59
         21.59  21.59  23.86  25.19  25.19  25.19  32.53  32.53  33.30  33.30
         33.30  38.21  48.90  48.90  48.90  59.98  59.98  59.98  66.57  76.16
         76.16  76.17  77.17  77.17
  17  1 -17.17 -14.58 -14.58 -14.57 -12.20 -12.20 -12.20  -9.34  -9.34  -9.34
         -8.24  -8.19  -8.19  -8.19  -6.13  -6.13  -4.53  -4.53  -4.53  -3.37
         -2.76  -2.76  -2.76  -2.37  -2.37   0.06   1.66   1.66   1.66   1.70
          1.70   1.70   1.73   1.73   4.75   4.99   4.99   5.00   5.37   5.37
          5.37   6.13   7.12   7.12   7.12   7.29   7.29   7.29   8.78   8.78
         10.50  10.50  10.50  11.39  11.39  11.39  11.56  11.56  11.56  15.02
         15.03  15.03  15.24  15.24  15.24  16.50  16.50  16.94  16.94  16.94
         17.44  18.61  18.61  18.61  20.71  20.71  20.71  20.96  20.96  21.76
         21.76  21.76  23.03  24.59  24.59  24.59  32.92  32.92  32.92  32.99
         32.99  38.70  46.07  46.07  46.07  61.07  61.07  61.07  65.58  74.97
         74.97  74.98  81.29  81.29
  18  1 -17.25 -14.48 -14.48 -14.48 -12.30 -12.30 -12.30  -9.27  -9.27  -9.27
         -8.26  -8.26  -8.26  -7.87  -6.05  -6.05  -4.62  -4.62  -4.62  -3.29
         -3.13  -3.13  -3.13  -2.47  -2.47  -0.28   1.79   1.79   2.06   2.06
          2.07   2.07   2.08   2.08   4.61   5.08   5.08   5.08   5.42   5.42
          5.42   6.07   7.11   7.11   7.11   7.31   7.31   7.31   8.40   8.40
         10.10  10.10  10.10  11.05  11.05  11.05  11.83  11.83  11.83  15.11
         15.11  15.12  15.37  15.37  15.37  17.01  17.01  17.03  17.04  17.04
         17.59  18.59  18.59  18.59  20.23  20.23  20.24  20.93  20.93  21.83
         21.83  21.83  22.15  24.08  24.08  24.08  32.60  32.60  32.60  33.44
         33.44  38.59  43.71  43.71  43.71  62.13  62.14  62.14  66.05  73.77
         73.77  73.78  86.50  86.50
  19  1 -17.32 -14.37 -14.37 -14.37 -12.42 -12.42 -12.42  -9.18  -9.18  -9.18
         -8.32  -8.32  -8.32  -7.50  -5.97  -5.97  -4.70  -4.69  -4.69  -3.48
         -3.48  -3.48  -3.20  -2.58  -2.58  -0.62   1.86   1.86   2.44   2.44
          2.44   2.48   2.48   2.48   4.42   5.16   5.16   5.16   5.48   5.48
          5.48   6.10   7.10   7.10   7.10   7.31   7.31   7.31   8.04   8.04
          9.66   9.66   9.66  10.54  10.54  10.54  12.32  12.32  12.32  15.04
         15.04  15.05  15.66  15.66  15.66  17.12  17.12  17.12  17.50  17.50
         17.71  18.58  18.58  18.58  19.79  19.79  19.80  20.88  20.88  21.31
         21.79  21.79  21.79  23.64  23.64  23.64  32.42  32.43  32.43  33.88
         33.88  37.94  41.81  41.81  41.81  63.15  63.16  63.16  68.00  72.59
         72.59  72.60  92.86  92.86
  20  1 -17.38 -14.26 -14.26 -14.26 -12.56 -12.56 -12.56  -9.07  -9.07  -9.07
         -8.37  -8.37  -8.37  -7.13  -5.90  -5.90  -4.76  -4.76  -4.76  -3.81
         -3.81  -3.81  -3.13  -2.69  -2.69  -0.95   1.96   1.96   2.81   2.81
          2.81   2.87   2.87   2.87   4.25   5.25   5.25   5.25   5.54   5.54
          5.54   6.16   7.08   7.08   7.08   7.30   7.30   7.30   7.69   7.69
          9.23   9.23   9.23  10.03  10.03  10.03  12.82  12.82  12.82  15.02
         15.02  15.02  15.89  15.89  15.89  17.19  17.19  17.19  17.71  17.96
         17.96  18.55  18.55  18.55  19.39  19.39  19.39  20.60  20.81  20.81
         21.66  21.66  21.66  23.26  23.26  23.26  32.46  32.46  32.46  34.28
         34.28  37.00  40.30  40.30  40.30  64.10  64.11  64.11  71.29  71.44
         71.44  71.45 100.31 100.31
  21  1 -17.43 -14.15 -14.15 -14.15 -12.71 -12.71 -12.70  -8.94  -8.94  -8.94
         -8.42  -8.42  -8.42  -6.78  -5.82  -5.82  -4.82  -4.82  -4.82  -4.10
         -4.10  -4.10  -3.06  -2.79  -2.79  -1.27   2.06   2.06   3.16   3.16
          3.16   3.24   3.24   3.24   4.15   5.34   5.34   5.34   5.61   5.61
          5.61   6.24   7.07   7.07   7.07   7.29   7.29   7.29   7.38   7.38
          8.80   8.80   8.80   9.52   9.52   9.52  13.32  13.32  13.32  15.04
         15.04  15.04  16.05  16.05  16.05  17.22  17.22  17.22  17.54  18.38
         18.38  18.49  18.49  18.49  19.02  19.02  19.02  20.14  20.72  20.72
         21.49  21.49  21.49  22.92  22.92  22.92  32.71  32.72  32.72  34.63
         34.63  36.05  39.10  39.10  39.10  64.96  64.97  64.97  70.34  70.34
         70.35  75.95 108.61 108.61
  22  1 -17.48 -14.02 -14.02 -14.02 -12.86 -12.86 -12.86  -8.82  -8.82  -8.82
         -8.46  -8.45  -8.45  -6.44  -5.76  -5.76  -4.87  -4.87  -4.87  -4.37
         -4.36  -4.36  -3.02  -2.88  -2.88  -1.57   2.17   2.17   3.50   3.50
          3.50   3.57   3.57   3.57   4.14   5.45   5.45   5.45   5.68   5.68
          5.68   6.32   7.05   7.05   7.05   7.10   7.10   7.29   7.29   7.29
          8.38   8.38   8.38   9.04   9.04   9.04  13.82  13.82  13.82  15.08
         15.08  15.08  16.17  16.17  16.17  17.17  17.21  17.21  17.21  18.39
         18.39  18.39  18.69  18.69  18.70  18.76  18.76  19.95  20.61  20.61
         21.35  21.35  21.35  22.61  22.61  22.61  33.15  33.16  33.16  34.93
         34.93  35.32  38.14  38.14  38.14  65.71  65.72  65.72  69.31  69.31
         69.33  82.44 117.29 117.29
  23  1 -17.51 -13.89 -13.89 -13.89 -13.01 -13.01 -13.01  -8.71  -8.71  -8.71
         -8.48  -8.48  -8.48  -6.13  -5.70  -5.70  -4.90  -4.90  -4.90  -4.58
         -4.58  -4.58  -3.01  -2.96  -2.96  -1.82   2.27   2.27   3.79   3.79
          3.79   3.85   3.85   3.85   4.27   5.58   5.58   5.58   5.76   5.76
          5.76   6.40   6.86   6.86   7.04   7.04   7.04   7.30   7.30   7.30
          7.99   7.99   7.99   8.58   8.58   8.58  14.30  14.30  14.30  15.13
         15.13  15.14  16.24  16.24  16.24  16.73  17.12  17.13  17.13  18.26
         18.26  18.26  18.42  18.42  18.43  19.10  19.10  19.93  20.49  20.49
         21.30  21.30  21.30  22.33  22.33  22.33  33.71  33.72  33.72  34.92
         35.15  35.15  37.36  37.36  37.36  66.32  66.33  66.33  68.42  68.42
         68.43  92.07 125.59 125.59
  24  1 -17.52 -13.76 -13.76 -13.76 -13.17 -13.17 -13.17  -8.62  -8.62  -8.62
         -8.51  -8.50  -8.50  -5.88  -5.66  -5.66  -4.93  -4.93  -4.93  -4.75
         -4.75  -4.75  -3.03  -3.02  -3.02  -2.01   2.35   2.35   4.03   4.03
          4.03   4.07   4.07   4.07   4.54   5.73   5.73   5.73   5.84   5.85
          5.85   6.47   6.69   6.69   7.05   7.05   7.05   7.34   7.34   7.34
          7.63   7.63   7.63   8.18   8.18   8.18  14.74  14.74  14.74  15.19
         15.19  15.19  16.30  16.30  16.30  16.36  16.95  16.95  16.95  18.14
         18.14  18.14  18.21  18.21  18.22  19.40  19.40  19.98  20.34  20.34
         21.34  21.34  21.34  22.07  22.07  22.07  34.32  34.33  34.33  34.90
         35.31  35.31  36.70  36.70  36.70  66.77  66.78  66.78  67.72  67.72
         67.73 107.10 132.57 132.57
  25  1 -17.53 -13.62 -13.62 -13.61 -13.32 -13.32 -13.32  -8.56  -8.56  -8.55
         -8.52  -8.52  -8.52  -5.70  -5.63  -5.63  -4.94  -4.93  -4.93  -4.86
         -4.86  -4.86  -3.06  -3.06  -3.06  -2.12   2.41   2.41   4.18   4.18
          4.18   4.20   4.20   4.20   4.85   5.87   5.87   5.87   5.91   5.91
          5.91   6.52   6.58   6.58   7.07   7.07   7.07   7.34   7.34   7.34
          7.42   7.42   7.42   7.84   7.84   7.84  15.09  15.09  15.09  15.24
         15.24  15.24  16.10  16.37  16.37  16.37  16.71  16.72  16.72  18.05
         18.05  18.06  18.08  18.08  18.09  19.65  19.65  20.02  20.19  20.19
         21.46  21.46  21.46  21.84  21.84  21.84  34.93  34.94  34.94  35.12
         35.41  35.41  36.11  36.11  36.11  67.04  67.04  67.05  67.28  67.28
         67.28 127.79 137.26 137.26
  26  1 -17.53 -13.48 -13.47 -13.47 -13.47 -13.47 -13.46  -8.53  -8.53  -8.53
         -8.52  -8.52  -8.52  -5.64  -5.62  -5.62  -4.93  -4.93  -4.93  -4.91
         -4.91  -4.91  -3.08  -3.07  -3.07  -2.15   2.43   2.43   4.23   4.23
          4.24   4.24   4.24   4.24   5.00   5.93   5.93   5.94   5.94   5.95
          5.95   6.54   6.54   6.54   7.15   7.15   7.15   7.15   7.15   7.15
          7.58   7.58   7.58   7.59   7.59   7.59  15.23  15.23  15.23  15.25
         15.25  15.25  16.01  16.48  16.49  16.49  16.50  16.50  16.51  18.02
         18.02  18.03  18.04  18.04  18.04  19.79  19.79  20.03  20.08  20.08
         21.62  21.62  21.62  21.64  21.64  21.65  35.24  35.42  35.42  35.50
         35.53  35.53  35.56  35.56  35.57  67.06  67.06  67.12  67.15  67.19
         67.19 138.92 138.92 140.24
  27  1 -17.53 -13.71 -13.47 -13.47 -13.46 -13.46 -13.22  -8.55  -8.55  -8.54
         -8.54  -8.53  -8.52  -5.66  -5.65  -5.64  -4.97  -4.90  -4.90  -4.88
         -4.88  -4.85  -3.09  -3.05  -3.04  -2.12   2.39   2.43   4.17   4.18
          4.20   4.20   4.21   4.21   4.86   5.84   5.84   5.85   5.85   6.00
          6.01   6.54   6.54   6.58   6.92   7.21   7.21   7.22   7.22   7.24
          7.36   7.65   7.65   7.66   7.66   7.94  15.14  15.15  15.16  15.17
         15.19  15.19  16.10  16.18  16.56  16.56  16.57  16.57  16.79  18.03
         18.03  18.04  18.04  18.13  18.14  19.61  19.76  20.01  20.04  20.28
         21.36  21.62  21.62  21.65  21.65  21.98  34.59  35.06  35.20  35.46
         35.48  35.53  35.53  35.67  36.56  67.03  67.06  67.18  67.18  67.25
         67.26 131.89 135.00 135.87
  28  1 -17.53 -13.95 -13.47 -13.47 -13.46 -13.46 -12.96  -8.59  -8.59  -8.58
         -8.58  -8.52  -8.50  -5.76  -5.71  -5.70  -5.02  -4.83  -4.83  -4.81
         -4.81  -4.77  -3.12  -2.98  -2.97  -2.03   2.27   2.45   4.00   4.01
          4.09   4.09   4.10   4.11   4.55   5.64   5.64   5.66   5.66   6.18
          6.18   6.55   6.55   6.66   6.71   6.91   7.30   7.30   7.31   7.31
          7.54   7.88   7.88   7.90   7.90   8.32  14.90  14.91  15.00  15.00
         15.03  15.03  15.84  16.34  16.73  16.73  16.75  16.75  17.03  18.02
         18.02  18.03  18.03  18.41  18.42  19.37  19.66  19.89  19.92  20.60
         21.20  21.63  21.64  21.66  21.66  22.40  33.74  34.40  34.53  35.39
         35.40  35.46  35.46  36.50  37.68  66.84  66.89  67.39  67.40  67.47
         67.48 116.65 125.28 125.94
  29  1 -17.51 -14.18 -13.46 -13.46 -13.45 -13.45 -12.70  -8.65  -8.65  -8.64
         -8.64  -8.50  -8.48  -5.91  -5.81  -5.80  -5.05  -4.71  -4.71  -4.69
[...]
         73.22  86.36  88.84  91.03
  93  1 -16.54 -15.86 -14.69 -14.34 -12.49 -12.10 -10.66  -9.92  -9.67  -9.60
         -8.55  -8.31  -8.10  -7.84  -7.59  -6.65  -3.52  -3.50  -3.03  -2.39
         -2.17  -1.89  -1.87  -1.08  -1.05  -0.89  -0.65  -0.54   0.43   0.45
          1.10   1.88   1.90   1.93   2.53   3.45   3.91   3.93   4.56   5.54
          5.64   5.66   7.46   7.79   8.17   8.43   8.86   9.23   9.42  10.08
         10.38  10.94  11.01  11.26  11.40  11.72  11.99  12.36  12.93  13.27
         14.03  14.22  14.47  14.55  14.63  15.65  16.12  16.34  16.37  17.08
         17.65  17.77  18.69  18.84  19.40  20.73  21.81  22.17  23.14  23.32
         23.69  23.91  24.67  25.06  26.32  26.50  32.69  37.29  38.69  40.59
         43.78  53.53  53.71  56.71  58.03  63.83  65.87  67.40  68.04  69.03
         73.32  86.40  88.92  91.01
  94  1 -16.33 -15.68 -14.76 -14.76 -12.41 -12.41 -11.36 -10.56  -9.16  -9.16
         -8.13  -7.82  -7.82  -7.50  -6.98  -6.95  -3.63  -3.41  -3.26  -3.26
         -2.31  -1.69  -1.69  -1.50  -1.41  -0.69  -0.55   0.30   0.31   0.44
          0.67   0.67   2.73   2.73   3.19   3.23   4.76   4.89   5.04   5.29
          5.38   5.38   6.41   6.41   7.22   8.08   8.73   9.10   9.10   9.12
          9.28   9.28  11.05  11.36  11.36  11.75  13.01  13.27  13.46  13.46
         13.55  14.67  14.97  14.98  16.15  16.15  16.57  16.67  17.17  17.43
         17.43  17.82  17.82  19.20  19.21  19.23  20.82  22.16  22.30  23.84
         24.46  24.46  25.27  27.25  27.95  27.95  32.53  33.35  36.23  36.23
         41.49  49.38  55.76  55.76  56.89  61.95  63.97  68.82  68.89  68.90
         81.95  86.53  86.54  94.53
  95  1 -15.92 -15.36 -15.36 -15.00 -12.44 -12.04 -12.04 -11.41  -8.69  -8.25
         -8.25  -7.53  -7.27  -7.23  -7.23  -6.66  -3.52  -3.47  -3.10  -3.10
         -2.39  -2.39  -2.02  -1.98  -1.56  -1.18  -1.05  -1.05   1.19   1.19
          2.00   2.20   2.37   3.04   3.44   3.87   3.87   4.24   4.24   4.48
          5.09   6.92   6.92   7.10   7.10   7.62   7.95   8.59   8.76   8.76
          8.88   9.17   9.25  10.04  10.46  10.46  13.78  14.04  14.04  15.03
         15.04  15.09  15.52  15.77  15.82  15.94  16.55  16.55  17.70  18.36
         18.37  18.37  19.01  19.01  19.34  19.82  20.52  20.52  21.20  21.82
         26.84  27.08  27.08  28.78  28.93  32.40  32.40  34.46  39.68  41.24
         41.25  48.06  55.33  55.34  57.79  58.99  64.96  76.96  76.97  81.04
         81.36  81.37  90.13  91.62
  96  1 -15.92 -15.37 -15.36 -15.00 -12.45 -12.05 -12.04 -11.40  -8.68  -8.26
         -8.25  -7.53  -7.27  -7.24  -7.22  -6.67  -3.54  -3.48  -3.10  -3.08
         -2.39  -2.38  -2.03  -1.99  -1.56  -1.18  -1.05  -1.03   1.21   1.22
          1.99   2.20   2.41   3.02   3.42   3.85   3.87   4.22   4.24   4.48
          5.10   6.90   6.91   7.06   7.08   7.62   7.97   8.57   8.75   8.76
          8.88   9.19   9.28  10.05  10.47  10.50  13.80  14.03  14.04  15.02
         15.04  15.10  15.55  15.79  15.84  15.94  16.50  16.52  17.69  18.35
         18.38  18.41  18.98  19.00  19.34  19.80  20.50  20.51  21.18  21.87
         26.80  27.05  27.10  28.76  28.93  32.38  32.40  34.44  39.63  41.21
         41.28  48.02  55.32  55.50  57.64  58.94  64.71  76.82  76.85  81.14
         81.35  81.40  90.20  90.91
  97  1 -15.92 -15.36 -15.36 -15.01 -12.45 -12.04 -12.04 -11.40  -8.68  -8.25
         -8.25  -7.54  -7.26  -7.24  -7.24  -6.67  -3.53  -3.46  -3.11  -3.10
         -2.39  -2.39  -2.02  -1.99  -1.54  -1.17  -1.04  -1.04   1.22   1.22
          2.01   2.21   2.39   3.03   3.41   3.86   3.86   4.22   4.22   4.46
          5.07   6.90   6.90   7.11   7.11   7.63   7.95   8.57   8.75   8.75
          8.87   9.21   9.27  10.07  10.50  10.50  13.81  14.06  14.06  15.05
         15.05  15.08  15.55  15.77  15.81  15.91  16.50  16.51  17.67  18.35
         18.38  18.38  19.01  19.01  19.33  19.81  20.50  20.50  21.18  21.84
         26.85  27.06  27.06  28.73  28.96  32.35  32.35  34.44  39.67  41.19
         41.20  48.13  55.12  55.14  57.75  59.01  64.81  76.85  76.85  81.00
         81.31  81.31  90.23  91.23
  98  1 -16.10 -15.47 -15.47 -14.94 -11.99 -11.36 -11.36 -10.55  -9.70  -9.20
         -9.20  -8.59  -7.39  -7.33  -7.33  -6.60  -3.62  -2.91  -2.69  -2.69
         -2.02  -2.02  -1.62  -1.43  -0.32  -0.32  -0.28  -0.13   0.22   0.22
          0.52   0.99   1.53   1.93   2.29   2.55   2.55   4.08   4.08   5.13
          5.70   7.65   7.65   7.94   8.51   8.52   9.31   9.52   9.75   9.84
          9.84  10.55  11.06  11.64  11.64  12.03  12.64  12.82  12.91  12.91
         13.51  13.71  13.71  14.43  14.94  15.18  15.18  15.43  17.51  18.34
         18.34  19.18  19.97  19.97  20.37  20.43  21.65  21.66  21.87  22.39
         25.31  25.93  26.09  26.09  27.83  35.84  35.85  40.92  44.28  44.29
         50.82  51.70  53.89  53.90  59.53  61.24  62.88  69.87  69.89  81.22
         81.23  82.42  84.83  87.64
  99  1 -16.10 -15.47 -15.47 -14.94 -11.99 -11.36 -11.36 -10.56  -9.71  -9.20
         -9.20  -8.58  -7.39  -7.33  -7.33  -6.59  -3.62  -2.90  -2.69  -2.69
         -2.01  -2.01  -1.61  -1.42  -0.34  -0.34  -0.29  -0.15   0.21   0.21
          0.51   0.98   1.55   1.94   2.29   2.57   2.57   4.08   4.08   5.14
          5.71   7.64   7.64   7.95   8.52   8.52   9.30   9.51   9.73   9.87
          9.87  10.56  11.09  11.62  11.62  12.01  12.64  12.81  12.87  12.87
         13.48  13.70  13.71  14.43  14.95  15.22  15.22  15.44  17.51  18.34
         18.34  19.19  19.97  19.97  20.38  20.44  21.67  21.67  21.87  22.38
         25.30  25.92  26.10  26.10  27.85  35.86  35.86  40.93  44.39  44.40
         50.85  51.75  53.87  53.87  59.61  61.09  62.96  70.11  70.12  81.24
         81.25  82.44  84.77  87.61
 100  1 -15.92 -15.36 -15.36 -15.00 -12.44 -12.04 -12.04 -11.41  -8.69  -8.25
         -8.25  -7.53  -7.27  -7.23  -7.23  -6.66  -3.52  -3.47  -3.10  -3.10
         -2.39  -2.39  -2.02  -1.98  -1.56  -1.18  -1.05  -1.05   1.19   1.19
          2.00   2.20   2.37   3.04   3.44   3.87   3.87   4.24   4.24   4.48
          5.09   6.92   6.92   7.10   7.10   7.62   7.95   8.59   8.76   8.76
          8.88   9.17   9.25  10.04  10.46  10.46  13.78  14.04  14.04  15.03
         15.04  15.09  15.52  15.77  15.82  15.94  16.55  16.55  17.70  18.36
         18.37  18.37  19.01  19.01  19.34  19.82  20.52  20.52  21.20  21.82
         26.84  27.08  27.08  28.78  28.93  32.40  32.40  34.46  39.68  41.24
         41.25  48.06  55.33  55.34  57.79  58.99  64.96  76.96  76.97  81.04
         81.36  81.37  90.13  91.62
 101  1 -15.60 -15.23 -15.23 -15.23 -12.55 -12.54 -12.54 -12.15  -7.48  -7.48
         -7.48  -7.05  -7.05  -7.05  -6.82  -6.82  -4.15  -3.69  -3.69  -3.69
         -2.30  -2.30  -2.30  -2.16  -2.16  -1.87  -1.87  -1.87   2.68   2.68
          2.68   3.11   3.98   3.98   4.03   4.03   4.03   4.98   5.33   5.33
          5.33   6.10   6.10   6.10   6.24   6.24   6.24   7.64   7.64   7.85
          7.85   7.85   8.62   8.62   8.62   8.68  15.94  15.94  15.94  15.97
         16.45  16.45  16.69  16.69  16.69  17.37  17.37  17.37  18.15  18.15
         18.15  18.95  18.95  18.95  19.41  19.41  19.41  20.01  20.01  21.82
         28.26  28.26  28.26  29.71  29.71  29.87  29.87  29.87  51.15  51.15
         51.16  57.14  60.30  60.33  60.33  71.92  71.92  71.93  72.13  72.13
         88.43  88.43  88.44 102.52
 102  1 -15.60 -15.25 -15.23 -15.23 -12.55 -12.54 -12.54 -12.14  -7.48  -7.47
         -7.46  -7.06  -7.06  -7.05  -6.83  -6.82  -4.17  -3.69  -3.69  -3.67
         -2.30  -2.30  -2.29  -2.17  -2.16  -1.87  -1.87  -1.86   2.69   2.70
          2.71   3.09   3.98   4.00   4.02   4.03   4.03   4.99   5.31   5.31
          5.31   6.07   6.08   6.08   6.21   6.22   6.23   7.65   7.67   7.85
          7.86   7.87   8.62   8.65   8.65   8.70  15.91  15.94  15.94  16.00
         16.45  16.47  16.69  16.71  16.71  17.33  17.34  17.35  18.09  18.14
         18.14  18.96  18.96  18.97  19.38  19.40  19.41  19.99  20.01  21.89
         28.22  28.22  28.26  29.67  29.71  29.88  29.89  29.91  51.10  51.10
         51.30  57.14  60.10  60.12  60.51  71.31  71.73  71.94  72.09  72.11
         88.28  88.31  88.38 102.32
 103  1 -15.92 -15.37 -15.36 -15.00 -12.45 -12.05 -12.04 -11.40  -8.68  -8.26
         -8.25  -7.53  -7.27  -7.24  -7.22  -6.67  -3.54  -3.48  -3.10  -3.08
         -2.39  -2.38  -2.03  -1.99  -1.56  -1.18  -1.05  -1.03   1.21   1.22
          1.99   2.20   2.41   3.02   3.42   3.85   3.87   4.22   4.24   4.48
          5.10   6.90   6.91   7.06   7.08   7.62   7.97   8.57   8.75   8.76
          8.88   9.19   9.28  10.05  10.47  10.50  13.80  14.03  14.04  15.02
         15.04  15.10  15.55  15.79  15.84  15.94  16.50  16.52  17.69  18.35
         18.38  18.41  18.98  19.00  19.34  19.80  20.50  20.51  21.18  21.87
         26.80  27.05  27.10  28.76  28.93  32.38  32.40  34.44  39.63  41.21
         41.28  48.02  55.32  55.50  57.64  58.94  64.71  76.82  76.85  81.14
         81.35  81.40  90.20  90.91
 104  1 -16.10 -15.48 -15.47 -14.94 -11.99 -11.36 -11.36 -10.55  -9.70  -9.20
         -9.19  -8.59  -7.40  -7.34  -7.32  -6.60  -3.63  -2.92  -2.68  -2.67
         -2.02  -2.01  -1.62  -1.43  -0.33  -0.32  -0.29  -0.15   0.22   0.23
          0.50   0.98   1.53   1.92   2.32   2.56   2.58   4.05   4.05   5.15
          5.73   7.61   7.62   7.94   8.51   8.53   9.31   9.52   9.75   9.84
          9.86  10.57  11.07  11.62  11.62  12.03  12.65  12.82  12.88  12.90
         13.50  13.68  13.70  14.47  14.95  15.17  15.20  15.45  17.54  18.34
         18.37  19.16  19.96  19.97  20.37  20.43  21.66  21.67  21.85  22.39
         25.28  25.91  26.10  26.12  27.83  35.84  35.88  40.88  44.34  44.41
         50.64  51.78  53.99  54.13  59.55  61.24  62.73  69.88  69.96  81.15
         81.22  82.52  84.83  87.66
 105  1 -16.10 -15.48 -15.47 -14.94 -11.99 -11.36 -11.36 -10.55  -9.70  -9.20
         -9.19  -8.59  -7.40  -7.34  -7.32  -6.60  -3.63  -2.92  -2.68  -2.67
         -2.02  -2.01  -1.62  -1.43  -0.33  -0.32  -0.29  -0.15   0.22   0.23
          0.50   0.98   1.53   1.92   2.32   2.56   2.58   4.05   4.05   5.15
          5.73   7.61   7.62   7.94   8.51   8.53   9.31   9.52   9.75   9.84
          9.86  10.57  11.07  11.62  11.62  12.03  12.65  12.82  12.88  12.90
         13.50  13.68  13.70  14.47  14.95  15.17  15.20  15.45  17.54  18.34
         18.37  19.16  19.96  19.97  20.37  20.43  21.66  21.67  21.85  22.39
         25.28  25.91  26.10  26.12  27.83  35.84  35.88  40.88  44.34  44.41
         50.64  51.78  53.99  54.13  59.55  61.24  62.73  69.88  69.96  81.15
         81.22  82.52  84.83  87.66
 106  1 -15.92 -15.37 -15.36 -15.00 -12.45 -12.05 -12.04 -11.40  -8.68  -8.26
         -8.25  -7.53  -7.27  -7.24  -7.22  -6.67  -3.54  -3.48  -3.10  -3.08
         -2.39  -2.38  -2.03  -1.99  -1.56  -1.18  -1.05  -1.03   1.21   1.22
          1.99   2.20   2.41   3.02   3.42   3.85   3.87   4.22   4.24   4.48
          5.10   6.90   6.91   7.06   7.08   7.62   7.97   8.57   8.75   8.76
          8.88   9.19   9.28  10.05  10.47  10.50  13.80  14.03  14.04  15.02
         15.04  15.10  15.55  15.79  15.84  15.94  16.50  16.52  17.69  18.35
         18.38  18.41  18.98  19.00  19.34  19.80  20.50  20.51  21.18  21.87
         26.80  27.05  27.10  28.76  28.93  32.38  32.40  34.44  39.63  41.21
         41.28  48.02  55.32  55.50  57.64  58.94  64.71  76.82  76.85  81.14
         81.35  81.40  90.20  90.91
 107  1 -15.60 -15.25 -15.23 -15.23 -12.55 -12.54 -12.54 -12.14  -7.48  -7.47
         -7.46  -7.06  -7.06  -7.05  -6.83  -6.82  -4.17  -3.69  -3.69  -3.67
         -2.30  -2.30  -2.29  -2.17  -2.16  -1.87  -1.87  -1.86   2.69   2.70
          2.71   3.09   3.98   4.00   4.02   4.03   4.03   4.99   5.31   5.31
          5.31   6.07   6.08   6.08   6.21   6.22   6.23   7.65   7.67   7.85
          7.86   7.87   8.62   8.65   8.65   8.70  15.91  15.94  15.94  16.00
         16.45  16.47  16.69  16.71  16.71  17.33  17.34  17.35  18.09  18.14
         18.14  18.96  18.96  18.97  19.38  19.40  19.41  19.99  20.01  21.89
         28.22  28.22  28.26  29.67  29.71  29.88  29.89  29.91  51.10  51.10
         51.30  57.14  60.10  60.12  60.51  71.31  71.73  71.94  72.09  72.11
         88.28  88.31  88.38 102.32
 108  1 -15.60 -15.25 -15.23 -15.23 -12.55 -12.54 -12.54 -12.14  -7.48  -7.47
         -7.46  -7.06  -7.06  -7.05  -6.83  -6.82  -4.17  -3.69  -3.69  -3.67
         -2.30  -2.30  -2.29  -2.17  -2.16  -1.87  -1.87  -1.86   2.69   2.70
          2.71   3.09   3.98   4.00   4.02   4.03   4.03   4.99   5.31   5.31
          5.31   6.07   6.08   6.08   6.21   6.22   6.23   7.65   7.67   7.85
          7.86   7.87   8.62   8.65   8.65   8.70  15.91  15.94  15.94  16.00
         16.45  16.47  16.69  16.71  16.71  17.33  17.34  17.35  18.09  18.14
         18.14  18.96  18.96  18.97  19.38  19.40  19.41  19.99  20.01  21.89
         28.22  28.22  28.26  29.67  29.71  29.88  29.89  29.91  51.10  51.10
         51.30  57.14  60.10  60.12  60.51  71.31  71.73  71.94  72.09  72.11
         88.28  88.31  88.38 102.32
siesta: Fermi energy =      -5.326015 eV

siesta: Program's energy decomposition (eV):
siesta: Ebs     =      -343.428494
siesta: Eions   =      1510.441798
siesta: Ena     =       465.632135
siesta: Ekin    =       324.376699
siesta: Enl     =       110.883484
siesta: DEna    =         5.322697
siesta: DUscf   =         1.517984
siesta: DUext   =         0.000000
siesta: Exc     =      -259.255624
siesta: eta*DQ  =         0.000000
siesta: Emadel  =         0.000000
siesta: Emeta   =         0.000000
siesta: Emolmec =         0.000000
siesta: Ekinion =         0.000000
siesta: Eharris =      -861.970235
siesta: Etot    =      -861.964423
siesta: FreeEng =      -861.964423

siesta: Final energy (eV):
siesta:  Band Struct. =    -343.428494
siesta:       Kinetic =     324.376699
siesta:       Hartree =      58.126978
siesta:    Ext. field =       0.000000
siesta:   Exch.-corr. =    -259.255624
siesta:  Ion-electron =    -446.012132
siesta:       Ion-ion =    -539.200345
siesta:       Ekinion =       0.000000
siesta:         Total =    -861.964423

siesta: Stress tensor (static) (eV/Ang**3):
siesta:     0.003014    0.000359    0.000359
siesta:     0.000359    0.003014    0.000359
siesta:     0.000359    0.000359    0.003014

siesta: Constrained stress tensor (static) (eV/Ang**3):
siesta:     0.003014    0.000359    0.000359
siesta:     0.000359    0.003014    0.000359
siesta:     0.000359    0.000359    0.003014

siesta: Cell volume =        162.054255 Ang**3

siesta: Pressure (static):
siesta:                Solid            Molecule  Units
siesta:          -0.00003283         -0.00005040  Ry/Bohr**3
siesta:          -0.00301449         -0.00462792  eV/Ang**3
siesta:          -4.82980194         -7.41482881  kBar
(Free)E+ p_basis*V_orbitals  =        -852.990820
(Free)Eharris+ p_basis*V_orbitals  =        -852.999116

* Maximum dynamic memory allocated : Node    0 =    89 MB

* Maximum memory occured during init_pulay_arrrays            

timer: CPU execution times:
timer:  Routine       Calls   Time/call    Tot.time        %
timer:  siesta            1     704.416     704.416   100.00
timer:  Setup             1       0.116       0.116     0.02
timer:  bands             3       0.555       1.664     0.24
timer:  writewave         3       0.007       0.020     0.00
timer:  KSV_init          1       0.000       0.000     0.00
timer:  IterMD            8      87.814     702.512    99.73
timer:  hsparse           8       0.194       1.548     0.22
timer:  overlap           8       0.128       1.024     0.15
timer:  IterSCF          41      14.186     581.644    82.57
timer:  kinefsm          16       0.124       1.976     0.28
timer:  nlefsm           16       3.887      62.200     8.83
timer:  DHSCF            49       7.934     388.784    55.19
timer:  DHSCF1            8       0.048       0.380     0.05
timer:  DHSCF2            8       2.130      17.041     2.42
timer:  REORD           310       0.000       0.032     0.00
timer:  POISON           57       0.005       0.272     0.04
timer:  DHSCF3           49       6.990     342.505    48.62
timer:  rhoofd           49       3.223     157.930    22.42
timer:  cellXC           49       0.012       0.588     0.08
timer:  vmat             49       3.749     183.683    26.08
timer:  MolMec           16       0.000       0.000     0.00
timer:  diagon           41       5.957     244.223    34.67
timer:  c-eigval       4529       0.016      73.493    10.43
timer:  c-buildHS      4529       0.012      53.392     7.58
timer:  cdiag          8958       0.007      61.045     8.67
timer:  cdiag1         8958       0.001       4.509     0.64
timer:  cdiag2         8958       0.002      15.981     2.27
timer:  cdiag3         8958       0.004      39.183     5.56
timer:  cdiag4         8958       0.000       1.108     0.16
timer:  c-eigvec       4429       0.021      93.558    13.28
timer:  c-buildD       4428       0.018      78.432    11.13
timer:  DHSCF4            8       3.605      28.842     4.09
timer:  dfscf             8       3.445      27.562     3.91
timer:  overfsm           8       0.116       0.924     0.13
timer:  optical           1       0.000       0.000     0.00
  

elaps: ELAPSED times:
elaps:  Routine       Calls   Time/call    Tot.time        %
elaps:  siesta            1     706.932     706.932   100.00
elaps:  Setup             1       0.119       0.119     0.02
elaps:  bands             3       0.556       1.669     0.24
elaps:  writewave         3       0.006       0.019     0.00
elaps:  KSV_init          1       0.000       0.000     0.00
elaps:  IterMD            8      88.127     705.018    99.73
elaps:  hsparse           8       0.194       1.555     0.22
elaps:  overlap           8       0.128       1.023     0.14
elaps:  IterSCF          41      14.238     583.768    82.58
elaps:  kinefsm          16       0.124       1.990     0.28
elaps:  nlefsm           16       3.899      62.383     8.82
elaps:  DHSCF            49       7.961     390.112    55.18
elaps:  DHSCF1            8       0.047       0.379     0.05
elaps:  DHSCF2            8       2.137      17.100     2.42
elaps:  REORD           310       0.000       0.028     0.00
elaps:  POISON           57       0.005       0.268     0.04
elaps:  DHSCF3           49       7.014     343.689    48.62
elaps:  rhoofd           49       3.234     158.469    22.42
elaps:  cellXC           49       0.012       0.591     0.08
elaps:  vmat             49       3.762     184.332    26.07
elaps:  MolMec           16       0.000       0.000     0.00
elaps:  diagon           41       5.980     245.200    34.69
elaps:  c-eigval       4529       0.016      73.805    10.44
elaps:  c-buildHS      4529       0.012      53.738     7.60
elaps:  cdiag          8958       0.007      61.185     8.66
elaps:  cdiag1         8958       0.001       4.519     0.64
elaps:  cdiag2         8958       0.002      16.050     2.27
elaps:  cdiag3         8958       0.004      39.278     5.56
elaps:  cdiag4         8958       0.000       1.114     0.16
elaps:  c-eigvec       4429       0.021      93.856    13.28
elaps:  c-buildD       4428       0.018      78.878    11.16
elaps:  DHSCF4            8       3.616      28.925     4.09
elaps:  dfscf             8       3.456      27.644     3.91
elaps:  overfsm           8       0.117       0.932     0.13
elaps:  optical           1       0.000       0.000     0.00
  
>> End of run:   9-MAY-2013  17:15:03

=====================================================================================
=   BAD TERMINATION OF ONE OF YOUR APPLICATION PROCESSES
=   EXIT CODE: 134
=   CLEANING UP REMAINING PROCESSES
=   YOU CAN IGNORE THE BELOW CLEANUP MESSAGES
=====================================================================================
APPLICATION TERMINATED WITH THE EXIT STRING: Aborted (signal 6)
